<?xml version="1.0"?>
<VTKFile type="UnstructuredGrid"  version="0.1"  >
<UnstructuredGrid>
<Piece  NumberOfPoints="5951" NumberOfCells="11438">
<Points>
<DataArray  type="Float64"  NumberOfComponents="3"  format="ascii">0 0 0  0.00502512562814 0.0122428047563 0  0.0100502512563 0.0170777676877 0  0.0150753768844 0.0206852930312 0  0.0201005025126 0.0236525625398 0  0.0251256281407 0.0262070932819 0  0.0301507537688 0.0284656305546 0  0.035175879397 0.0304975764531 0  0.0402010050251 0.0323481927611 0  0.0452261306533 0.0340489552443 0  0.0502512562814 0.0356228136381 0  0.0552763819095 0.0370871220356 0  0.0603015075377 0.0384553888481 0  0.06532663316579999 0.0397383802012 0  0.070351758794 0.0409448467798 0  0.0753768844221 0.0420820201996 0  0.0804020100503 0.0431559623911 0  0.0854271356784 0.0441718179346 0  0.0904522613065 0.0451340003908 0  0.0954773869347 0.0460463325775 0  0.100502512563 0.0469121539851 0  0.105527638191 0.047734404276 0  0.110552763819 0.0485156890716 0  0.115577889447 0.0492583324136 0  0.120603015075 0.049964419057 0  0.125628140704 0.0506358289042 0  0.130653266332 0.0512742652959 0  0.13567839196 0.051881278446 0  0.140703517588 0.0524582850034 0  0.145728643216 0.0530065844939 0  0.150753768844 0.0535273732313 0  0.155778894472 0.0540217561567 0  0.160804020101 0.0544907569719 0  0.165829145729 0.054935326858 0  0.170854271357 0.0553563520127 0  0.175879396985 0.0557546601977 0  0.180904522613 0.0561310264484 0  0.185929648241 0.0564861780755 0  0.190954773869 0.0568207990617 0  0.195979899497 0.0571355339409 0  0.201005025126 0.0574309912321 0  0.206030150754 0.0577077464898 0  0.211055276382 0.0579663450214 0  0.21608040201 0.0582073043143 0  0.221105527638 0.0584311162115 0  0.226130653266 0.0586382488648 0  0.231155778894 0.0588291484946 0  0.236180904523 0.0590042409781 0  0.241206030151 0.0591639332854 0  0.246231155779 0.0593086147833 0  0.251256281407 0.0594386584182 0  0.256281407035 0.0595544217941 0  0.261306532663 0.0596562481558 0  0.266331658291 0.0597444672869 0  0.27135678392 0.0598193963323 0  0.276381909548 0.0598813405527 0  0.281407035176 0.0599305940167 0  0.286432160804 0.0599674402387 0  0.291457286432 0.0599921527658 0  0.29648241206 0.0600049957198 0  0.301507537688 0.0600062242976 0  0.306532663317 0.0599960852346 0  0.311557788945 0.059974817234 0  0.316582914573 0.0599426513649 0  0.321608040201 0.0598998114322 0  0.326633165829 0.0598465143206 0  0.331658291457 0.0597829703145 0  0.336683417085 0.0597093833968 0  0.341708542714 0.0596259515275 0  0.346733668342 0.0595328669033 0  0.35175879397 0.0594303162013 0  0.356783919598 0.0593184808065 0  0.361809045226 0.059197537025 0  0.366834170854 0.059067656284 0  0.371859296482 0.0589290053194 0  0.376884422111 0.0587817463524 0  0.381909547739 0.058626037255 0  0.386934673367 0.058462031706 0  0.391959798995 0.0582898793379 0  0.396984924623 0.0581097258756 0  0.402010050251 0.0579217132665 0  0.407035175879 0.0577259798043 0  0.412060301508 0.0575226602451 0  0.417085427136 0.0573118859175 0  0.422110552764 0.0570937848267 0  0.427135678392 0.0568684817531 0  0.43216080402 0.0566360983458 0  0.437185929648 0.0563967532107 0  0.442211055276 0.0561505619949 0  0.447236180905 0.0558976374659 0  0.452261306533 0.0556380895873 0  0.457286432161 0.055372025591 0  0.462311557789 0.0550995500451 0  0.467336683417 0.0548207649189 0  0.472361809045 0.0545357696452 0  0.477386934673 0.0542446611783 0  0.482412060302 0.0539475340513 0  0.48743718593 0.0536444804283 0  0.492462311558 0.0533355901564 0  0.497487437186 0.0530209508139 0  0.502512562814 0.0527006477569 0  0.507537688442 0.0523747641634 0  0.51256281407 0.0520433810763 0  0.517587939698 0.0517065774431 0  0.522613065327 0.0513644301556 0  0.527638190955 0.0510170140863 0  0.532663316583 0.0506644021242 0  0.537688442211 0.0503066652086 0  0.542713567839 0.049943872362 0  0.547738693467 0.0495760907211 0  0.5527638190950001 0.0492033855669 0  0.557788944724 0.048825820353 0  0.562814070352 0.0484434567338 0  0.56783919598 0.0480563545905 0  0.572864321608 0.0476645720565 0  0.577889447236 0.0472681655421 0  0.5829145728639999 0.0468671897575 0  0.587939698492 0.0464616977359 0  0.592964824121 0.0460517408546 0  0.597989949749 0.0456373688563 0  0.6030150753770001 0.0452186298689 0  0.608040201005 0.0447955704248 0  0.613065326633 0.0443682354799 0  0.618090452261 0.0439366684307 0  0.623115577889 0.0435009111325 0  0.628140703518 0.0430610039154 0  0.6331658291459999 0.0426169856004 0  0.638190954774 0.0421688935151 0  0.643216080402 0.0417167635086 0  0.64824120603 0.0412606299655 0  0.653266331658 0.0408005258203 0  0.658291457286 0.0403364825705 0  0.663316582915 0.0398685302896 0  0.668341708543 0.0393966976396 0  0.673366834171 0.0389210118834 0  0.678391959799 0.0384414988958 0  0.683417085427 0.0379581831756 0  0.688442211055 0.0374710878559 0  0.693467336683 0.0369802347148 0  0.698492462312 0.036485644186 0  0.70351758794 0.0359873353682 0  0.708542713568 0.0354853260348 0  0.713567839196 0.0349796326435 0  0.718592964824 0.0344702703447 0  0.723618090452 0.0339572529907 0  0.72864321608 0.0334405931439 0  0.733668341709 0.0329203020848 0  0.738693467337 0.0323963898203 0  0.743718592965 0.0318688650912 0  0.748743718593 0.0313377353792 0  0.753768844221 0.0308030069149 0  0.758793969849 0.0302646846842 0  0.763819095477 0.0297227724353 0  0.768844221106 0.0291772726853 0  0.773869346734 0.0286281867266 0  0.778894472362 0.0280755146328 0  0.78391959799 0.0275192552653 0  0.7889447236180001 0.0269594062786 0  0.793969849246 0.0263959641263 0  0.798994974874 0.0258289240667 0  0.804020100503 0.0252582801677 0  0.8090452261310001 0.0246840253125 0  0.814070351759 0.0241061512045 0  0.8190954773869999 0.0235246483723 0  0.824120603015 0.0229395061741 0  0.829145728643 0.0223507128031 0  0.834170854271 0.0217582552912 0  0.839195979899 0.0211621195142 0  0.844221105528 0.0205622901955 0  0.849246231156 0.0199587509105 0  0.854271356784 0.0193514840908 0  0.859296482412 0.0187404710279 0  0.86432160804 0.0181256918773 0  0.869346733668 0.017507125662 0  0.874371859296 0.0168847502765 0  0.879396984925 0.0162585424899 0  0.884422110553 0.0156284779498 0  0.889447236181 0.0149945311856 0  0.894472361809 0.0143566756116 0  0.899497487437 0.0137148835302 0  0.904522613065 0.0130691261355 0  0.909547738693 0.0124193735156 0  0.914572864322 0.0117655946565 0  0.91959798995 0.011107757444 0  0.924623115578 0.0104458286675 0  0.929648241206 0.009779774021829999 0  0.934673366834 0.009109558110840001 0  0.939698492462 0.00843514444942 0  0.9447236180900001 0.00775649546628 0  0.949748743719 0.00707357250647 0  0.954773869347 0.0063863358338 0  0.959798994975 0.00569474463323 0  0.964824120603 0.0049987570132 0  0.969849246231 0.00429833000793 0  0.9748743718590001 0.00359341957965 0  0.979899497487 0.00288398062073 0  0.984924623116 0.00216996695585 0  0.989949748744 0.00145133134407 0  0.9949748743720001 0.000728025480842 0  1 -1.66533453694e-17 0  0.9949748743720001 -0.000728025480842 0  0.989949748744 -0.00145133134407 0  0.984924623116 -0.00216996695585 0  0.979899497487 -0.00288398062073 0  0.9748743718590001 -0.00359341957965 0  0.969849246231 -0.00429833000793 0  0.964824120603 -0.0049987570132 0  0.959798994975 -0.00569474463323 0  0.954773869347 -0.0063863358338 0  0.949748743719 -0.00707357250647 0  0.9447236180900001 -0.00775649546628 0  0.939698492462 -0.00843514444942 0  0.934673366834 -0.009109558110840001 0  0.929648241206 -0.009779774021829999 0  0.924623115578 -0.0104458286675 0  0.91959798995 -0.011107757444 0  0.914572864322 -0.0117655946565 0  0.909547738693 -0.0124193735156 0  0.904522613065 -0.0130691261355 0  0.899497487437 -0.0137148835302 0  0.894472361809 -0.0143566756116 0  0.889447236181 -0.0149945311856 0  0.884422110553 -0.0156284779498 0  0.879396984925 -0.0162585424899 0  0.874371859296 -0.0168847502765 0  0.869346733668 -0.017507125662 0  0.86432160804 -0.0181256918773 0  0.859296482412 -0.0187404710279 0  0.854271356784 -0.0193514840908 0  0.849246231156 -0.0199587509105 0  0.844221105528 -0.0205622901955 0  0.839195979899 -0.0211621195142 0  0.834170854271 -0.0217582552912 0  0.829145728643 -0.0223507128031 0  0.824120603015 -0.0229395061741 0  0.8190954773869999 -0.0235246483723 0  0.814070351759 -0.0241061512045 0  0.8090452261310001 -0.0246840253125 0  0.804020100503 -0.0252582801677 0  0.798994974874 -0.0258289240667 0  0.793969849246 -0.0263959641263 0  0.7889447236180001 -0.0269594062786 0  0.78391959799 -0.0275192552653 0  0.778894472362 -0.0280755146328 0  0.773869346734 -0.0286281867266 0  0.768844221106 -0.0291772726853 0  0.763819095477 -0.0297227724353 0  0.758793969849 -0.0302646846842 0  0.753768844221 -0.0308030069149 0  0.748743718593 -0.0313377353792 0  0.743718592965 -0.0318688650912 0  0.738693467337 -0.0323963898203 0  0.733668341709 -0.0329203020848 0  0.72864321608 -0.0334405931439 0  0.723618090452 -0.0339572529907 0  0.718592964824 -0.0344702703447 0  0.713567839196 -0.0349796326435 0  0.708542713568 -0.0354853260348 0  0.70351758794 -0.0359873353682 0  0.698492462312 -0.036485644186 0  0.693467336683 -0.0369802347148 0  0.688442211055 -0.0374710878559 0  0.683417085427 -0.0379581831756 0  0.678391959799 -0.0384414988958 0  0.673366834171 -0.0389210118834 0  0.668341708543 -0.0393966976396 0  0.663316582915 -0.0398685302896 0  0.658291457286 -0.0403364825705 0  0.653266331658 -0.0408005258203 0  0.64824120603 -0.0412606299655 0  0.643216080402 -0.0417167635086 0  0.638190954774 -0.0421688935151 0  0.6331658291459999 -0.0426169856004 0  0.628140703518 -0.0430610039154 0  0.623115577889 -0.0435009111325 0  0.618090452261 -0.0439366684307 0  0.613065326633 -0.0443682354799 0  0.608040201005 -0.0447955704248 0  0.6030150753770001 -0.0452186298689 0  0.597989949749 -0.0456373688563 0  0.592964824121 -0.0460517408546 0  0.587939698492 -0.0464616977359 0  0.5829145728639999 -0.0468671897575 0  0.57788944
[...]
<PointData  Scalars="u"> 
<DataArray  type="Float64"  Name="u"  format="ascii">3.6851051384043608e+01  3.2523717018239559e+01  2.8376779304702726e+01  2.4752868410472320e+01  2.2135307689073564e+01  1.8554549761125788e+01  1.5757134854322485e+01  1.2992633741759345e+01  1.1400146198928669e+01  9.5346406518454820e+00  6.4512773356403734e+00  3.7717231454315980e+00  1.6453703343608885e+00  -1.4062555839348595e-01  -1.9144073281789689e-01  -7.0026587288784348e-01  -1.9090666855737923e+00  -3.8896250615091654e+00  -5.0695936136850079e+00  -5.6173872397069111e+00  -5.1920655464141063e+00  -5.6463012455747839e+00  -6.3041196325055324e+00  -7.0900945447137271e+00  -8.3705888458852069e+00  -9.7887950653399987e+00  -1.0729748955139701e+01  -1.1699405766687144e+01  -1.2105883628823145e+01  -1.3098383250194086e+01  -1.2812963066732090e+01  -1.1210886633830574e+01  -9.9936431586163792e+00  -9.6279718201856728e+00  -1.0624061218418717e+01  -1.2247550906447991e+01  -1.4270901976997960e+01  -1.4643466097100191e+01  -1.3541171604558961e+01  -1.2117925060844691e+01  -1.1973727734066953e+01  -1.3631591732561938e+01  -1.5211683909459621e+01  -1.5275036128295044e+01  -1.3906918879029291e+01  -1.2746544304785115e+01  -1.2904599368630102e+01  -1.4205628892269516e+01  -1.5188465020938992e+01  -1.4833620863949941e+01  -1.4143123894969110e+01  -1.4189243178810550e+01  -1.4850466312368843e+01  -1.4987710125926672e+01  -1.4626468055584642e+01  -1.4625789972650026e+01  -1.4639712933846033e+01  -1.4489493022149130e+01  -1.4413456743933736e+01  -1.4289137067770012e+01  -1.4372552429952064e+01  -1.4413046176749658e+01  -1.4186430027336796e+01  -1.4199967562390858e+01  -1.4261627946021106e+01  -1.4201501376860410e+01  -1.3818160985411145e+01  -1.3628587820645627e+01  -1.3724217016308552e+01  -1.3889072653975120e+01  -1.3930156446280952e+01  -1.3968457182077318e+01  -1.3722904772188269e+01  -1.3339597815231610e+01  -1.2931839451138561e+01  -1.2710957440074754e+01  -1.2623335391064067e+01  -1.2636148815758125e+01  -1.2570362821363247e+01  -1.2562134187596135e+01  -1.2539766178699310e+01  -1.2560297037260707e+01  -1.2559357731151280e+01  -1.2496852764162329e+01  -1.2488363500392188e+01  -1.2508493067552063e+01  -1.2545708767415233e+01  -1.2603617702785137e+01  -1.2669927634430177e+01  -1.2738674817152960e+01  -1.2788131155072117e+01  -1.2841328262352144e+01  -1.2900006219002174e+01  -1.2944785436437877e+01  -1.2997138126437635e+01  -1.3066628948950587e+01  -1.3083859098651887e+01  -1.3148519053663334e+01  -1.3167135177463580e+01  -1.3148767882239859e+01  -1.3074854042673088e+01  -1.2972460952866228e+01  -1.2890618585894408e+01  -1.2793565451876107e+01  -1.2765713354246154e+01  -1.2740876798109500e+01  -1.2727996874121965e+01  -1.2727925152262475e+01  -1.2709613061887493e+01  -1.2720385003452181e+01  -1.2723427157382080e+01  -1.2739588349772976e+01  -1.2749838604104033e+01  -1.2762699354452312e+01  -1.2761867701243157e+01  -1.2806750709636480e+01  -1.2850299431000952e+01  -1.2841492915115111e+01  -1.2814544588741935e+01  -1.2768104945002174e+01  -1.2687151759863307e+01  -1.2626632321356013e+01  -1.2534160672841365e+01  -1.2486478493358325e+01  -1.2477402320804524e+01  -1.2479646196914643e+01  -1.2505645358707699e+01  -1.2543065242896445e+01  -1.2576906118177996e+01  -1.2630302227135747e+01  -1.2698760559571797e+01  -1.2736314283218704e+01  -1.2770215167218995e+01  -1.2815370210193890e+01  -1.2834940278585949e+01  -1.2871848648445939e+01  -1.2886659881018431e+01  -1.2918980753923687e+01  -1.2898594143668106e+01  -1.2907333646117326e+01  -1.2892413454936440e+01  -1.2881838531417886e+01  -1.2848837582483144e+01  -1.2830068025636637e+01  -1.2807045902157396e+01  -1.2798887169922926e+01  -1.2775713250616795e+01  -1.2744600241754183e+01  -1.2723005855035664e+01  -1.2716587609491032e+01  -1.2738418991909951e+01  -1.2739332303635216e+01  -1.2756814394607783e+01  -1.2771366745430308e+01  -1.2801324745539029e+01  -1.2810647085246030e+01  -1.2855051627563608e+01  -1.2858876185360417e+01  -1.2881058749549346e+01  -1.2854759217736198e+01  -1.2846132674551745e+01  -1.2864250889197523e+01  -1.2848572721167884e+01  -1.2777619160448719e+01  -1.2758347258678301e+01  -1.2700997278661992e+01  -1.2661612870203442e+01  -1.2621735093668377e+01  -1.2565903860071291e+01  -1.2470755999661069e+01  -1.2380048805053702e+01  -1.2237104072300925e+01  -1.2126811329766777e+01  -1.2031395798041418e+01  -1.1898830924797187e+01  -1.1755507231206529e+01  -1.1615497777329315e+01  -1.1519554403699912e+01  -1.1415342103372993e+01  -1.1309379013056562e+01  -1.1215413498227250e+01  -1.1125687131354901e+01  -1.1055196294537966e+01  -1.0976244336430687e+01  -1.0882836210385934e+01  -1.0805563126689018e+01  -1.0729414413031542e+01  -1.0650028058453254e+01  -1.0583913991197278e+01  -1.0495651430216979e+01  -1.0457059025731029e+01  -1.0458069721723660e+01  -1.0501773840073232e+01  -1.0569584019060422e+01  -1.0614719512157535e+01  -1.0624655860976580e+01  -1.0624709965606096e+01  -1.0544692242030248e+01  -1.0403337080406784e+01  -1.0070076774620288e+01  -9.7815714368384352e+00  -9.5159315292094711e+00  -9.1971080298880139e+00  -8.8577926536281240e+00  -8.5216623018028930e+00  -8.2253584018709507e+00  -7.9301839349439422e+00  -7.6586635191487025e+00  -7.4223581434294230e+00  -7.1301783048753009e+00  -6.8830976354213353e+00  -6.5697813506196594e+00  -6.2919768584535865e+00  -5.9332941455640791e+00  -5.6607588551708208e+00  -5.2922129386378245e+00  -5.0019886564702301e+00  -4.6338947697703246e+00  -4.3412984487574908e+00  -3.9772920259972566e+00  -3.7164010436755217e+00  -3.4155771012707961e+00  -3.2244265499377445e+00  -3.0922674218273563e+00  -2.9531823570167668e+00  -2.9545792467845438e+00  -3.0852183881269064e+00  -3.0691991368289333e+00  -3.0612842610944124e+00  -2.9524284278886657e+00  -3.0220765551317519e+00  -3.0038113292457731e+00  -3.0724137909407045e+00  -3.1174275018166417e+00  -3.1171815094924455e+00  -3.1171784555586783e+00  -3.1008550978231142e+00  -2.9937974895633155e+00  -2.9477016785758265e+00  -2.9283405666452653e+00  -2.8151217190325086e+00  -2.8039761710812452e+00  -2.6718059340782694e+00  -2.5622195283851195e+00  -2.6013766299323637e+00  -2.5807157388571991e+00  -2.6570229252531563e+00  -2.7215419502610327e+00  -2.8319466445802148e+00  -3.0229407887651476e+00  -3.2149519312391726e+00  -3.4603485826718141e+00  -3.6575102643877537e+00  -3.8336660777003044e+00  -3.9688052828226432e+00  -4.1079989658137022e+00  -4.2263966312201457e+00  -4.3084535132150013e+00  -4.3638721055169061e+00  -4.3810129219100933e+00  -4.4018745640213472e+00  -4.4149779654213512e+00  -4.4307538539044176e+00  -4.4293980787091902e+00  -4.4386425265636937e+00  -4.4514970870719681e+00  -4.4758718863573348e+00  -4.5035676642531923e+00  -4.5344607070817968e+00  -4.5689385963719094e+00  -4.5778852097178788e+00  -4.5842791040428761e+00  -4.5844046683325308e+00  -4.6006537084196344e+00  -4.6220846638564579e+00  -4.6462277897835902e+00  -4.6799016025478313e+00  -4.7025044165109886e+00  -4.7472251656242070e+00  -4.7966640209143199e+00  -4.8498159833357590e+00  -4.8952697735412620e+00  -4.9276186207554664e+00  -4.9756200647293536e+00  -5.0043245879255078e+00  -5.0546151421638843e+00  -5.0902267993280343e+00  -5.1104870775436311e+00  -5.1380948916763707e+00  -5.1432487577952655e+00  -5.1489073543921213e+00  -5.1395656084198791e+00  -5.1542163319029450e+00  -5.1691978323195187e+00  -5.2078669800841801e+00  -5.2339911610892207e+00  -5.2982950904387183e+00  -5.3882088696326909e+00  -5.4376669098910844e+00  -5.4911749992397016e+00  -5.5057436796026513e+00  -5.5554371049463640e+00  -5.5993002162487073e+00  -5.6476883602914931e+00  -5.6622510931225545e+00  -5.7184498888164210e+00  -5.7386121795940674e+00  -5.7903122862637622e+00  -5.8063057569377889e+00  -5.8207184727021257e+00  -5.8300508526960435e+00  -5.8604974441904503e+00  -5.9352799442728346e+00  -6.0036672207034805e+00  -6.0637187663359118e+00  -6.1089608036370899e+00  -6.2121602636034234e+00  -6.2853585161339911e+00  -6.3026707934353130e+00  -6.2987013965838656e+00  -6.3659024287827561e+00  -6.3498845592859325e+00  -6.2794621400083015e+00  -6.3018600663872339e+00  -6.3084973776520394e+00  -6.3373490727671697e+00  -6.4291499974511535e+00  -6.5132452988674014e+00  -6.5897832649409347e+00  -6.8669319283751502e+00  -6.9724324520982366e+00  -7.0387992097880474e+00  -7.1692369327167125e+00  -7.3095330785759165e+00  -7.1935500395281657e+00  -7.0000144029807512e+00  -7.4542728317406137e+00  -7.8453133132900232e+00  -7.9672431517790736e+00  -7.6013285326787736e+00  -7.2439665705904943e+00  -7.2330401901338988e+00  -8.0868547592449556e+00  -8.6879564406862002e+00  -8.4994978060909059e+00  -7.7969612051991692e+00  -6.7235033262499373e+00  -6.7880313287000060e+00  -7.8011186886437640e+00  -9.2143451051896257e+00  -9.7262311654685156e+00  -9.0260089358312516e+00  -8.2792404630163681e+00  -7.5941039033182562e+00  -7.0563926202860339e+00  -7.3942048512716854e+00  -8.3239041596939423e+00  -9.0516732802917108e+00  -9.0077432420276118e+00  -8.4780403096594021e+00  -7.8736075552205875e+00  -6.7954527386889509e+00  -6.6523405763158667e+00  -6.6541598462246272e+00  -7.4414233331841277e+00  -8.5714220401791916e+00  -9.6667022519827626e+00  -9.5616288919371950e+00  -8.3531099732447451e+00  -6.6622932959842425e+00  -5.6904894510794017e+00  -4.5148063460373660e+00  -3.4015625944187708e+00  -3.6424725683647803e+00  -3.2060182440169460e+00  -3.5722175946649166e+00  -3.1212712737115367e+00  -3.5746753898042805e+00  -2.9351586357631718e+00  -1.6721053309616465e+00  -2.2754741058202341e-01  1.0289853084095324e+00  2.1319251230944221e+00  3.5215577341632689e+00  3.8292305989999544e+00  4.9605582781127406e+00  5.8769481947033757e+00  6.8045561067595921e+00  8.7807708951673096e+00  1.2326538949636959e+01  1.5384359541379649e+01  1.7135197739388158e+01  1.9623100324824346e+01  2.2214296339306614e+01  2.4772165469485774e+01  2.6852568793923314e+01  3.0159600430531292e+01  3.3964858971529353e+01  2.3251093641170271e+00  0.0000000000000000e+00  0.0000000000000000e+00  0.0000000000000000e+00  3.5750737424709762e+01  3.6496126765568206e+01  2.1978520297867656e+00  2.2428910170625382e+00  2.1281611021786082e+00  2.1786999401278648e+00  2.0323014505405830e+00  2.0513440740217179e+00  1.9514888432070647e+00  2.0661157572934417e+00  1.8110946210026679e+00  1.7266566560534180e+00  1.6831597686174569e+00  1.6682919282734783e+00  1.4982713780791332e+00  1.1492695816631673e+00  1.0839285799324068e+00  0.0000000000000000e+00  0.0000000000000000e+00  0.0000000000000000e+00  0.0000000000000000e+00  0.0000000000000000e+00  0.0000000000000000e+00  0.0000000000000000e+00  0.0000000000000000e+00  0.0000000000000000e+00  0.0000000000000000e+00  0.0000000000000000e+00  0.0000000000000000e+00  0.0000000000000000e+00  0.0000000000000000e+00  0.0000000000000000e+00  0.0000000000000000e+00  0.0000000000000000e+00  0.0000000000000000e+00  0.0000000000000000e+00  0.0000000000000000e+00  0.0000000000000000e+00  0.0000000000000000e+00  0.0000000000000000e+00  0.0000000000000000e+00  0.0000000000000000e+00  0.0000000000000000e+00  0.0000000000000000e+00  0.0000000000000000e+00  0.0000000000000000e+00  0.0000000000000000e+00  1.1402056535253222e+00  1.3902797461455172e+00  1.7403810515151226e+00  1.7250504267785414e+00  1.9675930197590323e+00  1.8829489531714709e+00  2.0436717100656119e+00  2.1074954027155570e+00  2.1426979028889268e+00  2.1956222308091546e+00  2.2326925145297594e+00  2.2831556777600546e+00  2.2573422221167787e+00  2.2767434299491764e+00  2.2630612664249763e+00  2.1958764697294821e+00  2.6296518199703263e+00  2.4840039434682075e+00  2.6741432433911241e+00  1.8453354697960995e+00  1.8893296262911243e+00  2.6921894963438060e+00  2.2925386428071723e+00  2.8899677003144744e+00  2.9295142327302184e+00  3.9490624718957443e+00  1.3200546901209487e+00  1.4537778819975615e+00  2.8439888743582218e+00  5.6857578745196102e+00  4.4740816010023154e+00  1.1937993196212429e+00  2.0060367708705367e+00  -1.5296083310906259e+00  -1.8436788556900569e-01  1.2471295214433994e-01  -1.7839374624992193e+00  -2.6941898334120564e+00  1.4312396116976380e+00  6.3464260388144655e+00  -2.1100492702586355e+00  -3.0185508503317453e+00  -1.5353380992111507e+00  3.0844735343170706e+00  -5.2390359559114090e+00  -2.4987126587503425e+00  -2.9532041441483066e+00  -3.5137967377750670e+00  -1.7172791499415829e+00  3.6340281105955947e+00  -7.2985550857821400e+00  -5.4511766911577437e+00  2.3595343326247549e+00  3.3078000488184385e+00  -8.8168913255524366e+00  -8.3519020525931218e+00  -6.8233534398638493e+00  -2.3755254264198804e+00  9.3069468076557307e+00  -4.1185410141445562e+00  -4.1234961829289851e+00  5.2917882783973171e+00  3.4391283283063228e+00  -4.3008702006457149e+00  -4.1448666229663225e+00  -9.5051224141539823e+00  -7.5408944656658825e+00  -3.6333522742565587e+00  -1.8502881378889648e+00  -3.9556977616009825e+00  -1.4519538754590557e+00  -1.0649146370353591e+01  -1.1175578877531374e+01  -1.0318758748012302e+01  -1.0179536322800075e+01  -7.8768887160504999e+00  1.0219944139994650e+01  -6.9788858891249683e+00  -5.0339201707649925e+00  -1.1382436815926399e+01  -2.9704198872304031e+00  1.0582533665275312e+01  2.9611617624471696e+00  -1.1955864500723346e+01  -5.3535726100563892e+00  -5.3273167725343109e+00  4.6558361446472363e+00  1.2895130170842412e+01  2.8225221331834249e+00  2.4796956000781232e+00  -5.1835604080070832e+00  2.5056528143792804e+00  1.9466199745719270e+00  -1.1893791939454761e+01  -1.0691565642740061e+01  -9.9514827530991266e+00  -4.4278644452448459e+00  2.9129290079895935e+00  -6.1063261642745044e+00  9.5881774900324288e+00  -1.2310895562475320e+01  -1.2427660963404509e+01  -5.0121736855598025e+00  1.6336272994325963e+01  1.9604397617805085e+00  -1.1904383382476569e+01  -4.5455319984759823e+00  -1.2272358982557357e+01  -1.2266950890757919e+01  2.3122375227245011e+00  -2.2002552404939588e+00  -1.2929858999390678e+01  -1.2008640203139493e+01  -4.6300264877802526e+00  -1.2571065929622451e+01  -4.3558153008206473e+00  -2.3549383227156082e+00  -6.2243260928142563e+00  -1.2829099407276420e+01  -1.2714214170983826e+01  -4.5957198256334220e+00  -4.8042039405277253e+00  -9.0311420945185521e+00  2.3635489946675454e+00  -2.4913180170821194e+00  -1.0958478411287523e+01  -8.5217589154997722e+00  -4.1770060541564309e+00  2.4794138619778074e+00  -5.7376535992760056e+00  -6.7651047046262809e+00  -5.6953662711613395e+00  -7.1612648537007928e+00  -7.8570331370448221e+00  -4.1947700057399784e+00  -2.3566733175135872e+00  -3.8043755324880646e+00  2.2811453759350671e+00  -1.1859741080888659e+01  1.6990403986313369e+00  2.3655122846827954e+00  3.0606036246610313e+00  2.5840299520517203e+00  2.2225892204954083e+00  1.3105366849494244e+00  2.2586011256692338e+00  -1.2864678924279728e+01  -1.3114741115040369e+01  -1.1137680981180567e+01  -1.0202063091249984e+01  2.3272583407549305e+00  2.8195301855527419e+00  2.0269417636042196e+01  4.7032501806184444e+00  -1.2715864078773278e+01  -1.2677047961894132e+01  5.3954184771920186e+00  3.4168258429499127e-01  8.5528452706916447e+00  1.6974127176823359e+01  2.0300937522268779e+01  -6.1828946117633823e+00  3.1504716196043163e+00  -6.9956729353491678e+00  2.0254869678254357e+00  3.0381465290055156e+00  -1.2651607554409015e+01  1.9504560043115278e+00  -5.3990960036718656e+00  5.9046020285190872e+00  -1.2663063702465593e+01  1.8850201442190573e+00  3.7462733368707486e+00  2.3366749097450046e+00  2.9620400141589016e+00  3.4857018483213218e+00  2.5496739805346742e+00  -1.2544783857444713e+01  -1.2533865656593939e+01  -1.2450094991179920e+01  2.1923260519116483e-01  1.3778169380645866e+00  -1.0564694307691415e+01  -1.0702009568708801e+01  -9.7955190786451691e+00  -6.1890941042223635e-01  -6.6008905914002023e+00  2.4477419020801148e+00  2.2932153751743023e+00  -6.5401140831786950e+00  -5.6436293745003248e+00  -5.1435104347154761e+00  -4.4402879845721959e+00  5.9679465150194333e-01  -1.2692831070485084e+01  -4.5000201858483058e+00  1.5525771094177450e+00  -1.2898400820197789e+01  -6.9924844467196214e+00  -7.2670023979940455e+00  1.5638363963448512e+01  -1.4009136692431376e+01  -1.3612796413237964e+01  -8.3134914636175807e+00  2.9547478902955877e+00  2.6664704939628154e+00  1.3920198002272233e+00  -4.8767466117866984e+00  5.0086992621336687e-02  5.7325929913674161e+00  -1.2608577803304344e+01  -1.3182817187867707e+01  -1.3068598192115955e+01  -2.7415848845422550e+00  3.4195573763264270e-01  1.9386982812597051e+00  -2.1964631999253377e+00  -4.4786289703227258e+00  -1.2935245484902879e+01  -1.3190887231609014e+00  -3.1773213945074206e+00  -2.8133521023066304e+00  -3.8335084061573412e+00  2.0715520783805417e+00  -3.2316264441177500e+00  2.1527612125915020e+01  -2.5709740869005793e+00  2.5538998574398177e+00  9.8318915159443854e-02  1.0170962466557789e+00  3.6212200729109507e+00  -2.8744452682738548e+00  -4.4059575006156235e+00  2.7633963964020634e+00  2.2318283873393678e+00  -2.7524944171309484e+00  -5.9824146789158235e+00  -4.3408570727263527e+00  -8.4908668281421669e+00  -1.1064735775893201e+01  -5.3918322989645331e+00  2.5044695272291313e+00  -5.0494204938315503e+00  6.5865104961908436e+00  -6.2968724542716732e+00  -5.9530206550907723e+00  -7.8788850908590256e+00  1.2757654496410229e+00  1.9645869787250920e+00  1.7663393946840735e+00  -3.1765205515224699e+00  2.3409723761280934e+00  1.5256760728714629e+00  3.2848448809239299e+00  -6.1047290967417025e+00  2.9497602702881540e+00  -7.1373846034734942e+00  -1.2848288117323312e+01  -1.2444932084738619e+01  2.0986233110409307e+00  -1.1585228343931869e+01  -1.2884776277378498e+01  6.8916450830669174e-01  2.1239922267776588e+00  3.4955113366498711e+00  -4.3991040562626571e+00  -5.5766000267519056e+00  2.5990165866449808e+00  -4.1219856155096384e+00  -2.6257014547279938e+00  2.4284179266085286e+00  -9.3958954623500830e+00  4.4432122300921577e+00  1.0445046867434655e+01  -4.7595520024941882e+00  2.1236488084436083e+00  -3.4561717372693974e+00  -7.2430199615890318e+00  -2.2704328319385825e+00  -1.2751073190944108e+01  2.4642242486089221e+00  4.0339822071772282e+00  -1.3780850382481356e+01  -1.4136149302499366e+01  1.0695429109751293e+00  -1.0059445762454702e+01  -1.3083717031262969e+01  2.8877126729288194e+00  -1.2179894825474806e+01  2.5087007258012131e+00  -1.2780380967924405e+01  2.5189113392364333e+00  -1.0662032349017009e+01  3.7367128440706163e+00  -8.5658762743415651e-01  5.1129747512691182e-01  -1.3314064933170577e+01  2.1623794137935688e+00  -1.1353857281134729e+01  2.6889119670428885e+00  -4.0143552094709580e+00  -5.2888423366746373e+00  -4.5540630449970507e+00  2.8780575730303193e+00  -2.1672734773892985e+00  -2.1928674598977733e+00  1.2374856071093113e+01  -4.5309465934919917e+00  3.2650618944510161e+00  2.8268660433968922e+00  -3.2030991667650208e+00  -1.3195938230060712e+01  -3.6131272907999539e+00  -7.5463740332800517e+00  -2.7946722342053620e-01  -1.0857787748774948e+01  -3.0764972369957899e+00  -3.6398904767162348e+00  1.3650575892974759e+01  -7.6229016073608253e+00  4.1101686587315847e+00  -1.0118660791687310e+01  1.9491438061066901e+00  2.0555476011719933e+00  2.3044812180869854e+00  1.9765078320022602e+00  -6.5587023980928594e+00  2.3100477592291648e+00  -6.4201777444838424e+00  -1.1321864056170594e+00  -5.5468410314524528e+00  1.8784507226655260e+00  -4.2084810953857756e+00  -4.8413873596297430e+00  -3.1225209801151070e+00  -3.6329700189731908e+00  -1.2681431366403469e+01  -1.2794575067939922e+01  4.0003389061165278e+00  2.8148780459597904e+00  -1.2758160741856544e+01  -1.2313856328847729e+01  2.9735578055330354e+00  -3.0802328516689901e+00  2.4030196578019241e+00  -2.4038996828732668e+00  -1.3955411521512412e+01  1.5087330630728224e+00  -2.8967500891870679e+00  4.2701895282433993e-03  -8.5229021534980607e+00  -7.3647129812253178e+00  2.4263034301733097e+00  3.4963925720686762e-01  -7.8400552205405036e+00  -8.2457868081705392e+00  -5.1980085756957051e+00  -2.527600