<?xml version="1.0"?>
<VTKFile type="UnstructuredGrid"  version="0.1"  >
<UnstructuredGrid>
<Piece  NumberOfPoints="5951" NumberOfCells="11438">
<Points>
<DataArray  type="Float64"  NumberOfComponents="3"  format="ascii">0 0 0  0.00502512562814 0.0122428047563 0  0.0100502512563 0.0170777676877 0  0.0150753768844 0.0206852930312 0  0.0201005025126 0.0236525625398 0  0.0251256281407 0.0262070932819 0  0.0301507537688 0.0284656305546 0  0.035175879397 0.0304975764531 0  0.0402010050251 0.0323481927611 0  0.0452261306533 0.0340489552443 0  0.0502512562814 0.0356228136381 0  0.0552763819095 0.0370871220356 0  0.0603015075377 0.0384553888481 0  0.06532663316579999 0.0397383802012 0  0.070351758794 0.0409448467798 0  0.0753768844221 0.0420820201996 0  0.0804020100503 0.0431559623911 0  0.0854271356784 0.0441718179346 0  0.0904522613065 0.0451340003908 0  0.0954773869347 0.0460463325775 0  0.100502512563 0.0469121539851 0  0.105527638191 0.047734404276 0  0.110552763819 0.0485156890716 0  0.115577889447 0.0492583324136 0  0.120603015075 0.049964419057 0  0.125628140704 0.0506358289042 0  0.130653266332 0.0512742652959 0  0.13567839196 0.051881278446 0  0.140703517588 0.0524582850034 0  0.145728643216 0.0530065844939 0  0.150753768844 0.0535273732313 0  0.155778894472 0.0540217561567 0  0.160804020101 0.0544907569719 0  0.165829145729 0.054935326858 0  0.170854271357 0.0553563520127 0  0.175879396985 0.0557546601977 0  0.180904522613 0.0561310264484 0  0.185929648241 0.0564861780755 0  0.190954773869 0.0568207990617 0  0.195979899497 0.0571355339409 0  0.201005025126 0.0574309912321 0  0.206030150754 0.0577077464898 0  0.211055276382 0.0579663450214 0  0.21608040201 0.0582073043143 0  0.221105527638 0.0584311162115 0  0.226130653266 0.0586382488648 0  0.231155778894 0.0588291484946 0  0.236180904523 0.0590042409781 0  0.241206030151 0.0591639332854 0  0.246231155779 0.0593086147833 0  0.251256281407 0.0594386584182 0  0.256281407035 0.0595544217941 0  0.261306532663 0.0596562481558 0  0.266331658291 0.0597444672869 0  0.27135678392 0.0598193963323 0  0.276381909548 0.0598813405527 0  0.281407035176 0.0599305940167 0  0.286432160804 0.0599674402387 0  0.291457286432 0.0599921527658 0  0.29648241206 0.0600049957198 0  0.301507537688 0.0600062242976 0  0.306532663317 0.0599960852346 0  0.311557788945 0.059974817234 0  0.316582914573 0.0599426513649 0  0.321608040201 0.0598998114322 0  0.326633165829 0.0598465143206 0  0.331658291457 0.0597829703145 0  0.336683417085 0.0597093833968 0  0.341708542714 0.0596259515275 0  0.346733668342 0.0595328669033 0  0.35175879397 0.0594303162013 0  0.356783919598 0.0593184808065 0  0.361809045226 0.059197537025 0  0.366834170854 0.059067656284 0  0.371859296482 0.0589290053194 0  0.376884422111 0.0587817463524 0  0.381909547739 0.058626037255 0  0.386934673367 0.058462031706 0  0.391959798995 0.0582898793379 0  0.396984924623 0.0581097258756 0  0.402010050251 0.0579217132665 0  0.407035175879 0.0577259798043 0  0.412060301508 0.0575226602451 0  0.417085427136 0.0573118859175 0  0.422110552764 0.0570937848267 0  0.427135678392 0.0568684817531 0  0.43216080402 0.0566360983458 0  0.437185929648 0.0563967532107 0  0.442211055276 0.0561505619949 0  0.447236180905 0.0558976374659 0  0.452261306533 0.0556380895873 0  0.457286432161 0.055372025591 0  0.462311557789 0.0550995500451 0  0.467336683417 0.0548207649189 0  0.472361809045 0.0545357696452 0  0.477386934673 0.0542446611783 0  0.482412060302 0.0539475340513 0  0.48743718593 0.0536444804283 0  0.492462311558 0.0533355901564 0  0.497487437186 0.0530209508139 0  0.502512562814 0.0527006477569 0  0.507537688442 0.0523747641634 0  0.51256281407 0.0520433810763 0  0.517587939698 0.0517065774431 0  0.522613065327 0.0513644301556 0  0.527638190955 0.0510170140863 0  0.532663316583 0.0506644021242 0  0.537688442211 0.0503066652086 0  0.542713567839 0.049943872362 0  0.547738693467 0.0495760907211 0  0.5527638190950001 0.0492033855669 0  0.557788944724 0.048825820353 0  0.562814070352 0.0484434567338 0  0.56783919598 0.0480563545905 0  0.572864321608 0.0476645720565 0  0.577889447236 0.0472681655421 0  0.5829145728639999 0.0468671897575 0  0.587939698492 0.0464616977359 0  0.592964824121 0.0460517408546 0  0.597989949749 0.0456373688563 0  0.6030150753770001 0.0452186298689 0  0.608040201005 0.0447955704248 0  0.613065326633 0.0443682354799 0  0.618090452261 0.0439366684307 0  0.623115577889 0.0435009111325 0  0.628140703518 0.0430610039154 0  0.6331658291459999 0.0426169856004 0  0.638190954774 0.0421688935151 0  0.643216080402 0.0417167635086 0  0.64824120603 0.0412606299655 0  0.653266331658 0.0408005258203 0  0.658291457286 0.0403364825705 0  0.663316582915 0.0398685302896 0  0.668341708543 0.0393966976396 0  0.673366834171 0.0389210118834 0  0.678391959799 0.0384414988958 0  0.683417085427 0.0379581831756 0  0.688442211055 0.0374710878559 0  0.693467336683 0.0369802347148 0  0.698492462312 0.036485644186 0  0.70351758794 0.0359873353682 0  0.708542713568 0.0354853260348 0  0.713567839196 0.0349796326435 0  0.718592964824 0.0344702703447 0  0.723618090452 0.0339572529907 0  0.72864321608 0.0334405931439 0  0.733668341709 0.0329203020848 0  0.738693467337 0.0323963898203 0  0.743718592965 0.0318688650912 0  0.748743718593 0.0313377353792 0  0.753768844221 0.0308030069149 0  0.758793969849 0.0302646846842 0  0.763819095477 0.0297227724353 0  0.768844221106 0.0291772726853 0  0.773869346734 0.0286281867266 0  0.778894472362 0.0280755146328 0  0.78391959799 0.0275192552653 0  0.7889447236180001 0.0269594062786 0  0.793969849246 0.0263959641263 0  0.798994974874 0.0258289240667 0  0.804020100503 0.0252582801677 0  0.8090452261310001 0.0246840253125 0  0.814070351759 0.0241061512045 0  0.8190954773869999 0.0235246483723 0  0.824120603015 0.0229395061741 0  0.829145728643 0.0223507128031 0  0.834170854271 0.0217582552912 0  0.839195979899 0.0211621195142 0  0.844221105528 0.0205622901955 0  0.849246231156 0.0199587509105 0  0.854271356784 0.0193514840908 0  0.859296482412 0.0187404710279 0  0.86432160804 0.0181256918773 0  0.869346733668 0.017507125662 0  0.874371859296 0.0168847502765 0  0.879396984925 0.0162585424899 0  0.884422110553 0.0156284779498 0  0.889447236181 0.0149945311856 0  0.894472361809 0.0143566756116 0  0.899497487437 0.0137148835302 0  0.904522613065 0.0130691261355 0  0.909547738693 0.0124193735156 0  0.914572864322 0.0117655946565 0  0.91959798995 0.011107757444 0  0.924623115578 0.0104458286675 0  0.929648241206 0.009779774021829999 0  0.934673366834 0.009109558110840001 0  0.939698492462 0.00843514444942 0  0.9447236180900001 0.00775649546628 0  0.949748743719 0.00707357250647 0  0.954773869347 0.0063863358338 0  0.959798994975 0.00569474463323 0  0.964824120603 0.0049987570132 0  0.969849246231 0.00429833000793 0  0.9748743718590001 0.00359341957965 0  0.979899497487 0.00288398062073 0  0.984924623116 0.00216996695585 0  0.989949748744 0.00145133134407 0  0.9949748743720001 0.000728025480842 0  1 -1.66533453694e-17 0  0.9949748743720001 -0.000728025480842 0  0.989949748744 -0.00145133134407 0  0.984924623116 -0.00216996695585 0  0.979899497487 -0.00288398062073 0  0.9748743718590001 -0.00359341957965 0  0.969849246231 -0.00429833000793 0  0.964824120603 -0.0049987570132 0  0.959798994975 -0.00569474463323 0  0.954773869347 -0.0063863358338 0  0.949748743719 -0.00707357250647 0  0.9447236180900001 -0.00775649546628 0  0.939698492462 -0.00843514444942 0  0.934673366834 -0.009109558110840001 0  0.929648241206 -0.009779774021829999 0  0.924623115578 -0.0104458286675 0  0.91959798995 -0.011107757444 0  0.914572864322 -0.0117655946565 0  0.909547738693 -0.0124193735156 0  0.904522613065 -0.0130691261355 0  0.899497487437 -0.0137148835302 0  0.894472361809 -0.0143566756116 0  0.889447236181 -0.0149945311856 0  0.884422110553 -0.0156284779498 0  0.879396984925 -0.0162585424899 0  0.874371859296 -0.0168847502765 0  0.869346733668 -0.017507125662 0  0.86432160804 -0.0181256918773 0  0.859296482412 -0.0187404710279 0  0.854271356784 -0.0193514840908 0  0.849246231156 -0.0199587509105 0  0.844221105528 -0.0205622901955 0  0.839195979899 -0.0211621195142 0  0.834170854271 -0.0217582552912 0  0.829145728643 -0.0223507128031 0  0.824120603015 -0.0229395061741 0  0.8190954773869999 -0.0235246483723 0  0.814070351759 -0.0241061512045 0  0.8090452261310001 -0.0246840253125 0  0.804020100503 -0.0252582801677 0  0.798994974874 -0.0258289240667 0  0.793969849246 -0.0263959641263 0  0.7889447236180001 -0.0269594062786 0  0.78391959799 -0.0275192552653 0  0.778894472362 -0.0280755146328 0  0.773869346734 -0.0286281867266 0  0.768844221106 -0.0291772726853 0  0.763819095477 -0.0297227724353 0  0.758793969849 -0.0302646846842 0  0.753768844221 -0.0308030069149 0  0.748743718593 -0.0313377353792 0  0.743718592965 -0.0318688650912 0  0.738693467337 -0.0323963898203 0  0.733668341709 -0.0329203020848 0  0.72864321608 -0.0334405931439 0  0.723618090452 -0.0339572529907 0  0.718592964824 -0.0344702703447 0  0.713567839196 -0.0349796326435 0  0.708542713568 -0.0354853260348 0  0.70351758794 -0.0359873353682 0  0.698492462312 -0.036485644186 0  0.693467336683 -0.0369802347148 0  0.688442211055 -0.0374710878559 0  0.683417085427 -0.0379581831756 0  0.678391959799 -0.0384414988958 0  0.673366834171 -0.0389210118834 0  0.668341708543 -0.0393966976396 0  0.663316582915 -0.0398685302896 0  0.658291457286 -0.0403364825705 0  0.653266331658 -0.0408005258203 0  0.64824120603 -0.0412606299655 0  0.643216080402 -0.0417167635086 0  0.638190954774 -0.0421688935151 0  0.6331658291459999 -0.0426169856004 0  0.628140703518 -0.0430610039154 0  0.623115577889 -0.0435009111325 0  0.618090452261 -0.0439366684307 0  0.613065326633 -0.0443682354799 0  0.608040201005 -0.0447955704248 0  0.6030150753770001 -0.0452186298689 0  0.597989949749 -0.0456373688563 0  0.592964824121 -0.0460517408546 0  0.587939698492 -0.0464616977359 0  0.5829145728639999 -0.0468671897575 0  0.57788944
[...]
<PointData  Scalars="u"> 
<DataArray  type="Float64"  Name="u"  format="ascii">4.2259292119310430e+01  3.9351287160945795e+01  3.5113822443614154e+01  3.1146455998521162e+01  2.8605810972293739e+01  2.5537804464862656e+01  2.2444065814253008e+01  2.0349611782029413e+01  1.7757227428838139e+01  1.6219125345602535e+01  1.4532493923561086e+01  1.2965561678490815e+01  1.0715113893496818e+01  9.9149941409988092e+00  8.5175233250139222e+00  6.7631470256617225e+00  5.7258305789761055e+00  4.4109261048719821e+00  3.6272514289412099e+00  2.7493420739157601e+00  1.4858058420524676e+00  1.1836623422227190e+00  1.8886296370893257e-01  -7.4727541076563631e-01  -6.6808213436872799e-01  -6.9573088408649275e-01  -7.4842356730895210e-01  -1.6243278281031683e+00  -2.7209698488245015e+00  -2.1752408479216481e+00  -2.4709077141870606e+00  -3.0200028541553987e+00  -2.8190277350627135e+00  -2.6495275458210896e+00  -3.1109588710534841e+00  -3.2866976114431830e+00  -3.5924716769884655e+00  -3.5914522733067997e+00  -3.5885092330250563e+00  -4.1412351491160981e+00  -4.1624961942224461e+00  -3.8496877271287571e+00  -3.5276917561620995e+00  -3.7252589378653713e+00  -3.9068824159743141e+00  -3.4457771376368775e+00  -3.1497037919901203e+00  -4.0007516519742543e+00  -4.9798942183911352e+00  -5.3568142092710849e+00  -4.6241114288709566e+00  -4.1361419424772770e+00  -3.8326154635998995e+00  -3.4059565777792202e+00  -3.6406799358113786e+00  -3.7445183423128769e+00  -3.6506623599625625e+00  -3.9410174200606356e+00  -4.0272785087609195e+00  -4.1135735446857833e+00  -3.9815935852638185e+00  -3.1390301946168133e+00  -2.6538408846570740e+00  -2.3906750230840195e+00  -2.3440491934527814e+00  -2.8833300720353341e+00  -3.3202575365123908e+00  -2.7478110723945628e+00  -2.0066876461520611e+00  -1.6995641480685917e+00  -2.0852202033633671e+00  -2.4206403485418386e+00  -2.2329537263567851e+00  -2.6043064560847622e+00  -2.4498666150088164e+00  -1.8108689881336348e+00  -1.6750608351035075e+00  -2.0200716662222358e+00  -2.0519860486392596e+00  -1.9419325196353376e+00  -1.7720866760096978e+00  -1.6167765125616806e+00  -1.6859457122821839e+00  -1.6935019668996272e+00  -1.4886937740996571e+00  -1.2215172858824814e+00  -1.2934690443543368e+00  -1.1463921773203196e+00  -1.0022865033138135e+00  -8.9171689086424488e-01  -7.5353137224644706e-01  -5.9614149393154559e-01  -4.8306425461938279e-01  -5.3571025203178435e-01  -3.2996968661495935e-01  -9.6951315818806380e-02  -3.1141835959191295e-02  6.0797729184994063e-02  1.3039728870590195e-01  2.0982996995785902e-01  3.4225562774916818e-01  4.2445821809533835e-01  4.5218426917723448e-01  5.5111355805389606e-01  5.9729056621969734e-01  6.6016213539879298e-01  7.4979469686428502e-01  8.4645452521033893e-01  8.7956175936324932e-01  9.4053248987546645e-01  1.0726760328862246e+00  1.1206875059164130e+00  1.1266524426687115e+00  1.1631354664503888e+00  1.2086739223347471e+00  1.2216926401070922e+00  1.2362284204746936e+00  1.2182790275927919e+00  1.2526445492478777e+00  1.2568979081074410e+00  1.2724857610682361e+00  1.2415087278403198e+00  1.2271496002514468e+00  1.2013535618226214e+00  1.1853714082722941e+00  1.1922108746266500e+00  1.1938878562269579e+00  1.2096405884913941e+00  1.2480448786075107e+00  1.2785250712280600e+00  1.2909150676679642e+00  1.3084887565517276e+00  1.3174412885455471e+00  1.2993273476113805e+00  1.3336263132976567e+00  1.3393302947011685e+00  1.3454326941702641e+00  1.3605396494733788e+00  1.3692394071707676e+00  1.3656056529690477e+00  1.3829282279265953e+00  1.3768680010621712e+00  1.4117738746262629e+00  1.4115515565100176e+00  1.4287906227536393e+00  1.4219459117483859e+00  1.4456108557362812e+00  1.4474626587660531e+00  1.4735135113495199e+00  1.4999729674180842e+00  1.4635012623512595e+00  1.4968187017199337e+00  1.4911686058848861e+00  1.5298578435248529e+00  1.5250674191391154e+00  1.5871237128660700e+00  1.6130164144998260e+00  1.7019691620085762e+00  1.7444817972851481e+00  1.8410917900505832e+00  1.8950818025110134e+00  1.9192707601816981e+00  1.9586210739440508e+00  2.0425815371413241e+00  2.0534813967603784e+00  2.0938037441553030e+00  2.1147786187765045e+00  2.1255782286296561e+00  2.1379895094372983e+00  2.1558826477355035e+00  2.1852679933270158e+00  2.2551897043876745e+00  2.3284347012782014e+00  2.3396143830871159e+00  2.4054381872477064e+00  2.4161588438711701e+00  2.5289698008270056e+00  2.5846283136055930e+00  2.6185113210622504e+00  2.7347061896514142e+00  2.8220097338448893e+00  2.8620001512757782e+00  2.9299078561936716e+00  3.0279361875075241e+00  3.0650902384001228e+00  3.1011095777885407e+00  3.1543967179777801e+00  3.2721730578714729e+00  3.3187282847301716e+00  3.4123178819436193e+00  3.4750931103249827e+00  3.6037271595595448e+00  3.6764922899069283e+00  3.8256867248581115e+00  3.9314208948292193e+00  4.0918706052453926e+00  4.2026229425263990e+00  4.3724156421680629e+00  4.4714782815907652e+00  4.5323379948278433e+00  3.9767268350955156e+00  3.7487770366268145e+00  3.5541501029413585e+00  3.3675593665954762e+00  3.2322198784389959e+00  3.1809443582007271e+00  3.0871387686285998e+00  3.0023453331314074e+00  2.9371200391733185e+00  2.8277433233732778e+00  2.7871799593772648e+00  2.7079673049781299e+00  2.6703311105342773e+00  2.5527224619588029e+00  2.5114288767705930e+00  2.4082611736346640e+00  2.3663414981259359e+00  2.2642127612464016e+00  2.2261199630068145e+00  2.1307841575160262e+00  2.1036664435848387e+00  2.0177701055139448e+00  2.0018295069600209e+00  1.9483603328869845e+00  1.8522315860812135e+00  1.8444405439180644e+00  1.7999359219784787e+00  1.7303700974327547e+00  1.6775281731810983e+00  1.6943814908452854e+00  1.6916989923211430e+00  1.6624783610099090e+00  1.6791664780263911e+00  1.6840485886337009e+00  1.7142052257143845e+00  1.7147267192323628e+00  1.7383036028605638e+00  1.7032405415749985e+00  1.7162153395552706e+00  1.7294096755976984e+00  1.7139721969458448e+00  1.7182446763031396e+00  1.6779253126128537e+00  1.6536627257787575e+00  1.6516931229820497e+00  1.6296408722868343e+00  1.6239901224615951e+00  1.5976095220991822e+00  1.5579155203836441e+00  1.5323782386319196e+00  1.5184891636013826e+00  1.5402176202854818e+00  1.5297946163211638e+00  1.5245065671958602e+00  1.5513273802982697e+00  1.5623509849843842e+00  1.5704345054975748e+00  1.5871400197090746e+00  1.5823219193588853e+00  1.6160496170671153e+00  1.6088438177618625e+00  1.6092818121435679e+00  1.6663606856290683e+00  1.6893483920583900e+00  1.7287666704809352e+00  1.7675656819932131e+00  1.7964220234648156e+00  1.8074394755642265e+00  1.8049620830470781e+00  1.7815033950972186e+00  1.7649496803973210e+00  1.7311757203337088e+00  1.6921843282491817e+00  1.6504087017806586e+00  1.6214716452075792e+00  1.6123753713265954e+00  1.5945326717434709e+00  1.6061960341705415e+00  1.5974475501827003e+00  1.5689432104529828e+00  1.5427119167615939e+00  1.4847798461227371e+00  1.4410309871763527e+00  1.3870012371693548e+00  1.3344587319550880e+00  1.2634657313457105e+00  1.1953296703969192e+00  1.1205737195649921e+00  1.0228145692297650e+00  9.8821963716898242e-01  9.0217169294673483e-01  8.4588260322255515e-01  7.8138946272841470e-01  7.6771213547218720e-01  6.8130063835328047e-01  6.5759711293259160e-01  6.3003500656819578e-01  5.8457839830185343e-01  5.5532880888936620e-01  4.3323268146593841e-01  3.9152703406482486e-01  1.8112819899232890e-01  1.2444226742069601e-01  9.3191759206448538e-02  5.4046167467640738e-02  -1.2406416401640855e-01  -1.5627868650824861e-01  -2.2506638331498796e-01  -1.9839484989075115e-01  -3.2671709583886016e-01  -3.5391860836235506e-01  -3.5662148983277214e-01  -4.2110132705376346e-01  -5.8542363794632657e-01  -6.4419290938903429e-01  -6.8435992911036247e-01  -8.3702282948112305e-01  -9.5479155249976455e-01  -1.0660817053922231e+00  -1.2068853514230289e+00  -1.3582093351350790e+00  -1.5317131282977907e+00  -1.5194619879418640e+00  -1.5655658745229053e+00  -1.9626925382986002e+00  -1.9197503098166095e+00  -1.9057662287808661e+00  -2.1333434264009323e+00  -2.2908169447854920e+00  -2.5394806910123484e+00  -2.5253229196148510e+00  -2.4052615504871180e+00  -2.3795466256021758e+00  -2.5708433191053701e+00  -2.3406425927360308e+00  -2.0905197122107562e+00  -2.6929558645809797e+00  -2.7545709980121775e+00  -2.3711063084476804e+00  -2.6242718234436935e+00  -2.5290362967541182e+00  -2.4905377862999152e+00  -3.0578475827938383e+00  -3.2458396866527885e+00  -3.5440626047784218e+00  -3.1825875049851589e+00  -3.0865180482708734e+00  -3.7469574726436030e+00  -4.6810732038594018e+00  -4.3468597876091515e+00  -3.7450080326627972e+00  -3.3967495807926769e+00  -2.8985720733920504e+00  -2.8788813038226500e+00  -3.6382212819251509e+00  -4.0191515126701711e+00  -4.9592929830364607e+00  -4.3752595355757773e+00  -3.2622439192815174e+00  -2.3467886896114036e+00  -2.6691383894849352e+00  -2.5677376203655999e+00  -3.0703399498027024e+00  -3.4288917027760641e+00  -3.3274113066465070e+00  -2.3817567057376179e+00  -1.7583720272552297e+00  -1.2738673528080540e+00  -1.0389721150155595e+00  -1.6270233307198019e+00  -1.3162354604898094e+00  -7.3411659332649515e-01  -3.1805237230576677e-01  -3.8519079970216724e-01  -1.9078428837450057e-01  8.6445078125306740e-01  1.7578257679562370e+00  2.8114780019356043e+00  3.1255553810042525e+00  3.9280897856320034e+00  4.0225550480656809e+00  4.6401395041495119e+00  6.3297711359802564e+00  7.9927045439384949e+00  1.0332932116624306e+01  1.1409199963707151e+01  1.1759996390301666e+01  1.2869171759588951e+01  1.3884587959539598e+01  1.6178825009864202e+01  1.9335994812713906e+01  2.1679795498853856e+01  2.3252018471057230e+01  2.5342670161723113e+01  2.8187880329738839e+01  3.1038869808443302e+01  3.4303022501508607e+01  3.8274542148908793e+01  9.6739891665939908e+00  0.0000000000000000e+00  0.0000000000000000e+00  0.0000000000000000e+00  4.1973626518032752e+01  4.1365490987214777e+01  9.6704675743268673e+00  9.6135732149450757e+00  9.5634212340081231e+00  9.5611983771530085e+00  9.4742633968914767e+00  9.2577355111228243e+00  9.4720235541640943e+00  9.3064907887956707e+00  8.8993536122720016e+00  8.7149866469423305e+00  8.5144342388251815e+00  8.0984626968881681e+00  7.7104326499581042e+00  7.3712840606069179e+00  6.9815971646378783e+00  0.0000000000000000e+00  0.0000000000000000e+00  0.0000000000000000e+00  0.0000000000000000e+00  0.0000000000000000e+00  0.0000000000000000e+00  0.0000000000000000e+00  0.0000000000000000e+00  0.0000000000000000e+00  0.0000000000000000e+00  0.0000000000000000e+00  0.0000000000000000e+00  0.0000000000000000e+00  0.0000000000000000e+00  0.0000000000000000e+00  0.0000000000000000e+00  0.0000000000000000e+00  0.0000000000000000e+00  0.0000000000000000e+00  0.0000000000000000e+00  0.0000000000000000e+00  0.0000000000000000e+00  0.0000000000000000e+00  0.0000000000000000e+00  0.0000000000000000e+00  0.0000000000000000e+00  0.0000000000000000e+00  0.0000000000000000e+00  0.0000000000000000e+00  0.0000000000000000e+00  5.7787303918278816e+00  7.0457469953323608e+00  7.5809580699976937e+00  7.9216320277666314e+00  8.4419280090728002e+00  8.8290626887122023e+00  9.1970486959247673e+00  9.1437097286115190e+00  9.3662703181027460e+00  9.2784623155719270e+00  9.3661751635428256e+00  9.5995116694410463e+00  9.6467834322601185e+00  9.6928179364267848e+00  9.5543422661011412e+00  9.4593237999523048e+00  1.0133053691539279e+01  1.0049888154821520e+01  1.0406938411405047e+01  9.5070685237804859e+00  1.0031791215181515e+01  1.0141960500264400e+01  9.7950928122392078e+00  8.7587395710822520e+00  1.0128673840286487e+01  1.1343064523406749e+01  8.6318761621382833e+00  9.8739175486927628e+00  9.5913611960581182e+00  1.2514119579238242e+01  1.2150562002696233e+01  9.7601314220031927e+00  1.0437634528314801e+01  8.1081037347468534e+00  6.5560741064294170e+00  8.1887125311295872e+00  5.4535247756546834e+00  7.1133976324445882e+00  7.5782446005953013e+00  1.2583400677671374e+01  3.9742700470240582e+00  3.3906690774346875e+00  8.5171673863235746e+00  1.0150405779793799e+01  5.9344455882824878e+00  7.1229792017126350e+00  3.3354877836804016e+00  4.1118730141220201e+00  3.8675833115060283e+00  9.2701682658938491e+00  5.7383034044627674e+00  6.5531270098849665e+00  1.0762957623935893e+01  1.1196112531758034e+01  4.0174785872011878e+00  3.4441536213732991e+00  3.6084410335628716e+00  6.6726442972563902e+00  1.5981348275796831e+01  1.3925094391440793e+00  1.8415460480978989e+00  1.3229232325285929e+01  1.0758511837123651e+01  1.8961349686776019e+00  2.2331249673763285e+00  4.1247815109797861e+00  6.3066448321319095e+00  2.0298156195289385e+00  2.3037332916188982e+00  2.6314877625836184e+00  3.8006908204693297e+00  2.4961203124894258e+00  1.6309602422552660e+00  1.1624036843386627e+00  5.8114498293697270e-01  1.7831051385397447e+00  1.5947945676073212e+01  3.5685922222741588e+00  9.8666651734656260e-02  2.5969669900214321e+00  5.6525347090895863e+00  1.7694122067941933e+01  8.1512922525172993e+00  1.8533658881532749e+00  1.5339201462707924e-01  5.4087907783399547e-01  1.2569510262443025e+01  2.0078877416494034e+01  1.0041016646285938e+01  8.6924452644317007e+00  -2.2704190814454658e-01  1.0537434452523385e+01  9.3495454354727627e+00  2.7354287545156240e+00  3.6636312175405146e+00  4.6630520839223148e+00  9.2995807606787348e+00  1.1164961136618237e+01  -1.0799810987519312e+00  1.4859873970596841e+01  1.6302730965603649e+00  1.4149326325357534e+00  9.8030670633815375e-01  2.1814686813044020e+01  1.0112242618671472e+01  4.1388901133734507e-01  1.7245517637505583e+00  -6.9685865532622171e-01  -1.2011972773429418e+00  9.7874437346319514e+00  1.5417286440192068e+00  -1.7392583445173808e+00  -1.5548660997851329e+00  3.7363589614892834e-01  8.7925526018679701e-01  1.7480242968905830e+00  1.7860145112720620e+00  -1.1133286167664351e+00  2.0085703555100953e+00  1.7814589324596593e+00  1.9299243896983547e+00  1.3010110968395514e+00  4.1788504921284293e+00  9.8807441868894426e+00  2.4038360219954753e+00  -1.3232258539786359e+00  4.8659670395608506e-01  4.1006571781040453e+00  8.4237922353947958e+00  -2.5265366454328225e-01  -2.0068373250144060e+00  2.5179317924289553e+00  -2.3121248747268095e+00  9.5063717552174776e+00  1.6250086639587524e+00  1.6136279784543206e+00  1.9539139482540329e+00  9.3899419264867241e+00  2.5158699876900497e+00  8.6328751952623026e+00  9.9466655190560420e+00  1.0484893230486671e+01  1.0070259970188749e+01  1.0062510414168091e+01  6.0056700715056124e+00  9.8170888941195678e+00  1.3285805065082554e+00  1.4236446611194435e+00  3.0422499316044171e+00  3.2827326804194845e+00  9.6459601174092082e+00  8.6448710114282843e+00  2.6061920803510056e+01  1.2533248326814919e+01  3.7370016403255735e-01  -2.8109610613338720e-01  1.2713553796020479e+01  8.5476750182289649e+00  1.6070389645611570e+01  2.3906646934194018e+01  2.6871214225319708e+01  -1.0699134239348036e+00  1.0852225860785866e+01  2.8959559050104899e+00  9.4498007643119664e+00  1.1081436591148783e+01  1.5416633336361572e+00  9.5958972596260850e+00  3.0228613215985201e-01  1.0990668472843383e+01  2.0833831894633947e+00  9.9359083877058350e+00  1.0815287697855887e+01  9.8821479231997085e+00  1.0498688805974899e+01  1.0726522887000826e+01  9.9967723218937294e+00  1.3992877679259110e+00  -1.0589463857095758e+00  -1.5076588985804953e+00  7.6050737856964634e+00  8.9818967223041550e+00  4.0030380050444272e+00  5.4440749532291006e+00  6.7097766657920710e+00  9.6905143442218673e+00  -1.8374856052805759e+00  9.9883736337859652e+00  9.4477483675180078e+00  -2.0502493815849610e+00  -5.3654446669203937e-02  1.4056094015526139e+00  1.6631011146656314e+00  9.4466329840536769e+00  1.6903410046071941e+00  1.4796226099118355e+00  8.4010251577386246e+00  1.0066168176372103e+00  -2.1195893322727830e+00  -3.1761688600059546e+00  2.0480796479539812e+01  -2.9709892442341994e+00  -2.1539769846283359e+00  3.3124683351969204e+00  1.0243573113072227e+01  9.9899669081222733e+00  8.0375015122374300e+00  7.3660230523422154e-01  9.0433958216250865e+00  1.3520664682087144e+01  1.9782181757790660e+00  -3.0664512852389705e+00  1.2428049514684600e+00  9.0556379462531602e+00  9.0913896847394930e+00  9.6618041815230438e+00  5.8737758707028593e+00  1.6256102054992441e+00  -1.7194330009557965e+00  5.5234565853820037e+00  1.6488635834909371e+00  1.6706376118005368e+00  1.9578850733393405e+00  5.3527179548858541e+00  1.6335344577364601e+00  2.6403704865768518e+01  3.7125527107368392e+00  1.0055922684019224e+01  6.4953167635191447e+00  9.9381924292241379e+00  1.0088457792264368e+01  1.6796802691432293e+00  2.1826455054644045e+00  9.1741738362251990e+00  5.8202269254269403e+00  3.6736563557766035e+00  -8.1252652263640768e-01  6.1139382012547729e+00  3.3606714853771830e-01  -2.4350298574875944e+00  8.4565710421343088e-01  1.0006096106336706e+01  4.1929435432465185e+00  1.3927334190463828e+01  -1.4384362752202022e+00  -4.8279316337589068e-01  4.2099854598367079e+00  7.4616095532083486e+00  8.9570202618817500e+00  8.2195450531090319e+00  3.2479961980679071e+00  9.6703051327504550e+00  9.8956664814502577e+00  1.1099975647460619e+01  2.6742677357092854e+00  9.7626375875278342e+00  -2.6630500664513317e+00  1.3463435142854572e+00  7.1201112894136409e-01  9.4805700586918142e+00  2.5261048847616663e+00  2.0048808770675310e+00  6.3512194148983259e+00  9.5023245997128463e+00  1.2081037007939964e+01  1.7121839894233752e+00  -3.6620001838917488e-01  9.8699818146214184e+00  3.4453579390522675e+00  2.4223431473351837e+00  9.7611777546447716e+00  3.9764431347551952e+00  1.1377034389900235e+01  1.5576921407994446e+01  -2.0264147417843822e-01  5.6510585563715843e+00  1.3787526608993808e+00  -2.3102012961494705e+00  3.5156352030324305e+00  1.5294621761488241e+00  9.8801954341725828e+00  1.1587095411103073e+01  -3.7331710691353450e+00  -3.0900530519714593e+00  8.0957882116901327e+00  6.6268213902248299e+00  1.4538138296275618e+00  1.0630112171881265e+01  2.2973107309749752e+00  1.0004580790462132e+01  -3.3116699937945131e+00  9.8382432002926894e+00  4.4701578518642231e+00  9.8856204308669682e+00  6.9830917202487068e+00  9.3527802361116823e+00  -2.1148075467483269e+00  1.0055134749779429e+01  -2.1099762542148532e+00  1.0294919124368123e+01  2.2155101046785486e+00  1.0926928692761482e+00  1.4758079439931222e+00  9.3249509367955863e+00  4.6135871603122558e+00  7.8723842684619596e+00  1.8642980310796840e+01  1.7042567089429159e+00  1.0579357594514729e+01  1.0204780058916583e+01  2.2974104638930140e+00  -8.1306820573588415e-02  2.5969487571261918e+00  3.5278105975895611e+00  5.6849389586387638e+00  3.1191185467152227e+00  2.2160897514899434e+00  7.1985830927752543e+00  2.1112958658065278e+01  -2.5514673175840024e+00  1.1896805747284139e+01  1.8223266446973700e+00  9.1030369461183511e+00  8.9866707337112270e+00  9.7331978005001751e+00  7.4197791319308184e+00  -1.8875779378268103e+00  9.6529858168276217e+00  3.5352650154510505e+00  5.3383590495574360e+00  1.6468531100295961e-01  9.8397721016050639e+00  1.5156601377725503e+00  1.5295863869722794e+00  1.7570735334653866e+00  5.7290090101213593e+00  1.3754780544201290e+00  1.5982602153592695e+00  1.0843591889818635e+01  1.0286293975748773e+01  9.9423692612990933e-01  1.1261412773816053e+00  1.0016424377223634e+01  1.9036893793625091e+00  6.6921677552922318e+00  4.6284519323472288e+00  -2.9202131633771318e+00  9.8731374770120279e+00  6.6176903233236839e+00  8.9490777507939949e+00  5.0845907989903703e+00  5.1955411434641965e+00  9.9156414674008868e+00  9.4057594188884615e+00  -3.2899977178367030e+00  -3.1236812145638986e+00  1.8030399596711719e-01  2.4518308988441153e+00  1.0069114031858147e+01  9.9631303069182540e+00  -9.3603775498467223e-01  1.0075003570873305e+01  9.7227353948267474e+00  1.1548431254082194e+01  2.2220398610619507e+00  7.4161392565287692e+00  1.0561630006439621e+01  -1.6035929094768147e+00  1.0141516003236241e+01  1.0218573689110928e+01  3.0031775682865378e+00  3.6782657388276605e+00  9.4400528482896000e+00  8.42