<?xml version="1.0"?>
<VTKFile type="UnstructuredGrid"  version="0.1"  >
<UnstructuredGrid>
<Piece  NumberOfPoints="5951" NumberOfCells="11438">
<Points>
<DataArray  type="Float64"  NumberOfComponents="3"  format="ascii">0 0 0  0.00502512562814 0.0122428047563 0  0.0100502512563 0.0170777676877 0  0.0150753768844 0.0206852930312 0  0.0201005025126 0.0236525625398 0  0.0251256281407 0.0262070932819 0  0.0301507537688 0.0284656305546 0  0.035175879397 0.0304975764531 0  0.0402010050251 0.0323481927611 0  0.0452261306533 0.0340489552443 0  0.0502512562814 0.0356228136381 0  0.0552763819095 0.0370871220356 0  0.0603015075377 0.0384553888481 0  0.06532663316579999 0.0397383802012 0  0.070351758794 0.0409448467798 0  0.0753768844221 0.0420820201996 0  0.0804020100503 0.0431559623911 0  0.0854271356784 0.0441718179346 0  0.0904522613065 0.0451340003908 0  0.0954773869347 0.0460463325775 0  0.100502512563 0.0469121539851 0  0.105527638191 0.047734404276 0  0.110552763819 0.0485156890716 0  0.115577889447 0.0492583324136 0  0.120603015075 0.049964419057 0  0.125628140704 0.0506358289042 0  0.130653266332 0.0512742652959 0  0.13567839196 0.051881278446 0  0.140703517588 0.0524582850034 0  0.145728643216 0.0530065844939 0  0.150753768844 0.0535273732313 0  0.155778894472 0.0540217561567 0  0.160804020101 0.0544907569719 0  0.165829145729 0.054935326858 0  0.170854271357 0.0553563520127 0  0.175879396985 0.0557546601977 0  0.180904522613 0.0561310264484 0  0.185929648241 0.0564861780755 0  0.190954773869 0.0568207990617 0  0.195979899497 0.0571355339409 0  0.201005025126 0.0574309912321 0  0.206030150754 0.0577077464898 0  0.211055276382 0.0579663450214 0  0.21608040201 0.0582073043143 0  0.221105527638 0.0584311162115 0  0.226130653266 0.0586382488648 0  0.231155778894 0.0588291484946 0  0.236180904523 0.0590042409781 0  0.241206030151 0.0591639332854 0  0.246231155779 0.0593086147833 0  0.251256281407 0.0594386584182 0  0.256281407035 0.0595544217941 0  0.261306532663 0.0596562481558 0  0.266331658291 0.0597444672869 0  0.27135678392 0.0598193963323 0  0.276381909548 0.0598813405527 0  0.281407035176 0.0599305940167 0  0.286432160804 0.0599674402387 0  0.291457286432 0.0599921527658 0  0.29648241206 0.0600049957198 0  0.301507537688 0.0600062242976 0  0.306532663317 0.0599960852346 0  0.311557788945 0.059974817234 0  0.316582914573 0.0599426513649 0  0.321608040201 0.0598998114322 0  0.326633165829 0.0598465143206 0  0.331658291457 0.0597829703145 0  0.336683417085 0.0597093833968 0  0.341708542714 0.0596259515275 0  0.346733668342 0.0595328669033 0  0.35175879397 0.0594303162013 0  0.356783919598 0.0593184808065 0  0.361809045226 0.059197537025 0  0.366834170854 0.059067656284 0  0.371859296482 0.0589290053194 0  0.376884422111 0.0587817463524 0  0.381909547739 0.058626037255 0  0.386934673367 0.058462031706 0  0.391959798995 0.0582898793379 0  0.396984924623 0.0581097258756 0  0.402010050251 0.0579217132665 0  0.407035175879 0.0577259798043 0  0.412060301508 0.0575226602451 0  0.417085427136 0.0573118859175 0  0.422110552764 0.0570937848267 0  0.427135678392 0.0568684817531 0  0.43216080402 0.0566360983458 0  0.437185929648 0.0563967532107 0  0.442211055276 0.0561505619949 0  0.447236180905 0.0558976374659 0  0.452261306533 0.0556380895873 0  0.457286432161 0.055372025591 0  0.462311557789 0.0550995500451 0  0.467336683417 0.0548207649189 0  0.472361809045 0.0545357696452 0  0.477386934673 0.0542446611783 0  0.482412060302 0.0539475340513 0  0.48743718593 0.0536444804283 0  0.492462311558 0.0533355901564 0  0.497487437186 0.0530209508139 0  0.502512562814 0.0527006477569 0  0.507537688442 0.0523747641634 0  0.51256281407 0.0520433810763 0  0.517587939698 0.0517065774431 0  0.522613065327 0.0513644301556 0  0.527638190955 0.0510170140863 0  0.532663316583 0.0506644021242 0  0.537688442211 0.0503066652086 0  0.542713567839 0.049943872362 0  0.547738693467 0.0495760907211 0  0.5527638190950001 0.0492033855669 0  0.557788944724 0.048825820353 0  0.562814070352 0.0484434567338 0  0.56783919598 0.0480563545905 0  0.572864321608 0.0476645720565 0  0.577889447236 0.0472681655421 0  0.5829145728639999 0.0468671897575 0  0.587939698492 0.0464616977359 0  0.592964824121 0.0460517408546 0  0.597989949749 0.0456373688563 0  0.6030150753770001 0.0452186298689 0  0.608040201005 0.0447955704248 0  0.613065326633 0.0443682354799 0  0.618090452261 0.0439366684307 0  0.623115577889 0.0435009111325 0  0.628140703518 0.0430610039154 0  0.6331658291459999 0.0426169856004 0  0.638190954774 0.0421688935151 0  0.643216080402 0.0417167635086 0  0.64824120603 0.0412606299655 0  0.653266331658 0.0408005258203 0  0.658291457286 0.0403364825705 0  0.663316582915 0.0398685302896 0  0.668341708543 0.0393966976396 0  0.673366834171 0.0389210118834 0  0.678391959799 0.0384414988958 0  0.683417085427 0.0379581831756 0  0.688442211055 0.0374710878559 0  0.693467336683 0.0369802347148 0  0.698492462312 0.036485644186 0  0.70351758794 0.0359873353682 0  0.708542713568 0.0354853260348 0  0.713567839196 0.0349796326435 0  0.718592964824 0.0344702703447 0  0.723618090452 0.0339572529907 0  0.72864321608 0.0334405931439 0  0.733668341709 0.0329203020848 0  0.738693467337 0.0323963898203 0  0.743718592965 0.0318688650912 0  0.748743718593 0.0313377353792 0  0.753768844221 0.0308030069149 0  0.758793969849 0.0302646846842 0  0.763819095477 0.0297227724353 0  0.768844221106 0.0291772726853 0  0.773869346734 0.0286281867266 0  0.778894472362 0.0280755146328 0  0.78391959799 0.0275192552653 0  0.7889447236180001 0.0269594062786 0  0.793969849246 0.0263959641263 0  0.798994974874 0.0258289240667 0  0.804020100503 0.0252582801677 0  0.8090452261310001 0.0246840253125 0  0.814070351759 0.0241061512045 0  0.8190954773869999 0.0235246483723 0  0.824120603015 0.0229395061741 0  0.829145728643 0.0223507128031 0  0.834170854271 0.0217582552912 0  0.839195979899 0.0211621195142 0  0.844221105528 0.0205622901955 0  0.849246231156 0.0199587509105 0  0.854271356784 0.0193514840908 0  0.859296482412 0.0187404710279 0  0.86432160804 0.0181256918773 0  0.869346733668 0.017507125662 0  0.874371859296 0.0168847502765 0  0.879396984925 0.0162585424899 0  0.884422110553 0.0156284779498 0  0.889447236181 0.0149945311856 0  0.894472361809 0.0143566756116 0  0.899497487437 0.0137148835302 0  0.904522613065 0.0130691261355 0  0.909547738693 0.0124193735156 0  0.914572864322 0.0117655946565 0  0.91959798995 0.011107757444 0  0.924623115578 0.0104458286675 0  0.929648241206 0.009779774021829999 0  0.934673366834 0.009109558110840001 0  0.939698492462 0.00843514444942 0  0.9447236180900001 0.00775649546628 0  0.949748743719 0.00707357250647 0  0.954773869347 0.0063863358338 0  0.959798994975 0.00569474463323 0  0.964824120603 0.0049987570132 0  0.969849246231 0.00429833000793 0  0.9748743718590001 0.00359341957965 0  0.979899497487 0.00288398062073 0  0.984924623116 0.00216996695585 0  0.989949748744 0.00145133134407 0  0.9949748743720001 0.000728025480842 0  1 -1.66533453694e-17 0  0.9949748743720001 -0.000728025480842 0  0.989949748744 -0.00145133134407 0  0.984924623116 -0.00216996695585 0  0.979899497487 -0.00288398062073 0  0.9748743718590001 -0.00359341957965 0  0.969849246231 -0.00429833000793 0  0.964824120603 -0.0049987570132 0  0.959798994975 -0.00569474463323 0  0.954773869347 -0.0063863358338 0  0.949748743719 -0.00707357250647 0  0.9447236180900001 -0.00775649546628 0  0.939698492462 -0.00843514444942 0  0.934673366834 -0.009109558110840001 0  0.929648241206 -0.009779774021829999 0  0.924623115578 -0.0104458286675 0  0.91959798995 -0.011107757444 0  0.914572864322 -0.0117655946565 0  0.909547738693 -0.0124193735156 0  0.904522613065 -0.0130691261355 0  0.899497487437 -0.0137148835302 0  0.894472361809 -0.0143566756116 0  0.889447236181 -0.0149945311856 0  0.884422110553 -0.0156284779498 0  0.879396984925 -0.0162585424899 0  0.874371859296 -0.0168847502765 0  0.869346733668 -0.017507125662 0  0.86432160804 -0.0181256918773 0  0.859296482412 -0.0187404710279 0  0.854271356784 -0.0193514840908 0  0.849246231156 -0.0199587509105 0  0.844221105528 -0.0205622901955 0  0.839195979899 -0.0211621195142 0  0.834170854271 -0.0217582552912 0  0.829145728643 -0.0223507128031 0  0.824120603015 -0.0229395061741 0  0.8190954773869999 -0.0235246483723 0  0.814070351759 -0.0241061512045 0  0.8090452261310001 -0.0246840253125 0  0.804020100503 -0.0252582801677 0  0.798994974874 -0.0258289240667 0  0.793969849246 -0.0263959641263 0  0.7889447236180001 -0.0269594062786 0  0.78391959799 -0.0275192552653 0  0.778894472362 -0.0280755146328 0  0.773869346734 -0.0286281867266 0  0.768844221106 -0.0291772726853 0  0.763819095477 -0.0297227724353 0  0.758793969849 -0.0302646846842 0  0.753768844221 -0.0308030069149 0  0.748743718593 -0.0313377353792 0  0.743718592965 -0.0318688650912 0  0.738693467337 -0.0323963898203 0  0.733668341709 -0.0329203020848 0  0.72864321608 -0.0334405931439 0  0.723618090452 -0.0339572529907 0  0.718592964824 -0.0344702703447 0  0.713567839196 -0.0349796326435 0  0.708542713568 -0.0354853260348 0  0.70351758794 -0.0359873353682 0  0.698492462312 -0.036485644186 0  0.693467336683 -0.0369802347148 0  0.688442211055 -0.0374710878559 0  0.683417085427 -0.0379581831756 0  0.678391959799 -0.0384414988958 0  0.673366834171 -0.0389210118834 0  0.668341708543 -0.0393966976396 0  0.663316582915 -0.0398685302896 0  0.658291457286 -0.0403364825705 0  0.653266331658 -0.0408005258203 0  0.64824120603 -0.0412606299655 0  0.643216080402 -0.0417167635086 0  0.638190954774 -0.0421688935151 0  0.6331658291459999 -0.0426169856004 0  0.628140703518 -0.0430610039154 0  0.623115577889 -0.0435009111325 0  0.618090452261 -0.0439366684307 0  0.613065326633 -0.0443682354799 0  0.608040201005 -0.0447955704248 0  0.6030150753770001 -0.0452186298689 0  0.597989949749 -0.0456373688563 0  0.592964824121 -0.0460517408546 0  0.587939698492 -0.0464616977359 0  0.5829145728639999 -0.0468671897575 0  0.57788944
[...]
<PointData  Vectors="u"> 
<DataArray  type="Float64"  Name="u"  NumberOfComponents="3" format="ascii">0.0000000000000000e+00 0.0000000000000000e+00 0.0000000000000000e+00  0.0000000000000000e+00 0.0000000000000000e+00 0.0000000000000000e+00  0.0000000000000000e+00 0.0000000000000000e+00 0.0000000000000000e+00  0.0000000000000000e+00 0.0000000000000000e+00 0.0000000000000000e+00  0.0000000000000000e+00 0.0000000000000000e+00 0.0000000000000000e+00  0.0000000000000000e+00 0.0000000000000000e+00 0.0000000000000000e+00  0.0000000000000000e+00 0.0000000000000000e+00 0.0000000000000000e+00  0.0000000000000000e+00 0.0000000000000000e+00 0.0000000000000000e+00  0.0000000000000000e+00 0.0000000000000000e+00 0.0000000000000000e+00  0.0000000000000000e+00 0.0000000000000000e+00 0.0000000000000000e+00  0.0000000000000000e+00 0.0000000000000000e+00 0.0000000000000000e+00  0.0000000000000000e+00 0.0000000000000000e+00 0.0000000000000000e+00  0.0000000000000000e+00 0.0000000000000000e+00 0.0000000000000000e+00  0.0000000000000000e+00 0.0000000000000000e+00 0.0000000000000000e+00  0.0000000000000000e+00 0.0000000000000000e+00 0.0000000000000000e+00  0.0000000000000000e+00 0.0000000000000000e+00 0.0000000000000000e+00  0.0000000000000000e+00 0.0000000000000000e+00 0.0000000000000000e+00  0.0000000000000000e+00 0.0000000000000000e+00 0.0000000000000000e+00  0.0000000000000000e+00 0.0000000000000000e+00 0.0000000000000000e+00  0.0000000000000000e+00 0.0000000000000000e+00 0.0000000000000000e+00  0.0000000000000000e+00 0.0000000000000000e+00 0.0000000000000000e+00  0.0000000000000000e+00 0.0000000000000000e+00 0.0000000000000000e+00  0.0000000000000000e+00 0.0000000000000000e+00 0.0000000000000000e+00  0.0000000000000000e+00 0.0000000000000000e+00 0.0000000000000000e+00  0.0000000000000000e+00 0.0000000000000000e+00 0.0000000000000000e+00  0.0000000000000000e+00 0.0000000000000000e+00 0.0000000000000000e+00  0.0000000000000000e+00 0.0000000000000000e+00 0.0000000000000000e+00  0.0000000000000000e+00 0.0000000000000000e+00 0.0000000000000000e+00  0.0000000000000000e+00 0.0000000000000000e+00 0.0000000000000000e+00  0.0000000000000000e+00 0.0000000000000000e+00 0.0000000000000000e+00  0.0000000000000000e+00 0.0000000000000000e+00 0.0000000000000000e+00  0.0000000000000000e+00 0.0000000000000000e+00 0.0000000000000000e+00  0.0000000000000000e+00 0.0000000000000000e+00 0.0000000000000000e+00  0.0000000000000000e+00 0.0000000000000000e+00 0.0000000000000000e+00  0.0000000000000000e+00 0.0000000000000000e+00 0.0000000000000000e+00  0.0000000000000000e+00 0.0000000000000000e+00 0.0000000000000000e+00  0.0000000000000000e+00 0.0000000000000000e+00 0.0000000000000000e+00  0.0000000000000000e+00 0.0000000000000000e+00 0.0000000000000000e+00  0.0000000000000000e+00 0.0000000000000000e+00 0.0000000000000000e+00  0.0000000000000000e+00 0.0000000000000000e+00 0.0000000000000000e+00  0.0000000000000000e+00 0.0000000000000000e+00 0.0000000000000000e+00  0.0000000000000000e+00 0.0000000000000000e+00 0.0000000000000000e+00  0.0000000000000000e+00 0.0000000000000000e+00 0.0000000000000000e+00  0.0000000000000000e+00 0.0000000000000000e+00 0.0000000000000000e+00  0.0000000000000000e+00 0.0000000000000000e+00 0.0000000000000000e+00  0.0000000000000000e+00 0.0000000000000000e+00 0.0000000000000000e+00  0.0000000000000000e+00 0.0000000000000000e+00 0.0000000000000000e+00  0.0000000000000000e+00 0.0000000000000000e+00 0.0000000000000000e+00  0.0000000000000000e+00 0.0000000000000000e+00 0.0000000000000000e+00  0.0000000000000000e+00 0.0000000000000000e+00 0.0000000000000000e+00  0.0000000000000000e+00 0.0000000000000000e+00 0.0000000000000000e+00  0.0000000000000000e+00 0.0000000000000000e+00 0.0000000000000000e+00  0.0000000000000000e+00 0.0000000000000000e+00 0.0000000000000000e+00  0.0000000000000000e+00 0.0000000000000000e+00 0.0000000000000000e+00  0.0000000000000000e+00 0.0000000000000000e+00 0.0000000000000000e+00  0.0000000000000000e+00 0.0000000000000000e+00 0.0000000000000000e+00  0.0000000000000000e+00 0.0000000000000000e+00 0.0000000000000000e+00  0.0000000000000000e+00 0.0000000000000000e+00 0.0000000000000000e+00  0.0000000000000000e+00 0.0000000000000000e+00 0.0000000000000000e+00  0.0000000000000000e+00 0.0000000000000000e+00 0.0000000000000000e+00  0.0000000000000000e+00 0.0000000000000000e+00 0.0000000000000000e+00  0.0000000000000000e+00 0.0000000000000000e+00 0.0000000000000000e+00  0.0000000000000000e+00 0.0000000000000000e+00 0.0000000000000000e+00  0.0000000000000000e+00 0.0000000000000000e+00 0.0000000000000000e+00  0.0000000000000000e+00 0.0000000000000000e+00 0.0000000000000000e+00  0.0000000000000000e+00 0.0000000000000000e+00 0.0000000000000000e+00  0.0000000000000000e+00 0.0000000000000000e+00 0.0000000000000000e+00  0.0000000000000000e+00 0.0000000000000000e+00 0.0000000000000000e+00  0.0000000000000000e+00 0.0000000000000000e+00 0.0000000000000000e+00  0.0000000000000000e+00 0.0000000000000000e+00 0.0000000000000000e+00  0.0000000000000000e+00 0.0000000000000000e+00 0.0000000000000000e+00  0.0000000000000000e+00 0.0000000000000000e+00 0.0000000000000000e+00  0.0000000000000000e+00 0.0000000000000000e+00 0.0000000000000000e+00  0.0000000000000000e+00 0.0000000000000000e+00 0.0000000000000000e+00  0.0000000000000000e+00 0.0000000000000000e+00 0.0000000000000000e+00  0.0000000000000000e+00 0.0000000000000000e+00 0.0000000000000000e+00  0.0000000000000000e+00 0.0000000000000000e+00 0.0000000000000000e+00  0.0000000000000000e+00 0.0000000000000000e+00 0.0000000000000000e+00  0.0000000000000000e+00 0.0000000000000000e+00 0.0000000000000000e+00  0.0000000000000000e+00 0.0000000000000000e+00 0.0000000000000000e+00  0.0000000000000000e+00 0.0000000000000000e+00 0.0000000000000000e+00  0.0000000000000000e+00 0.0000000000000000e+00 0.0000000000000000e+00  0.0000000000000000e+00 0.0000000000000000e+00 0.0000000000000000e+00  0.0000000000000000e+00 0.0000000000000000e+00 0.0000000000000000e+00  0.0000000000000000e+00 0.0000000000000000e+00 0.0000000000000000e+00  0.0000000000000000e+00 0.0000000000000000e+00 0.0000000000000000e+00  0.0000000000000000e+00 0.0000000000000000e+00 0.0000000000000000e+00  0.0000000000000000e+00 0.0000000000000000e+00 0.0000000000000000e+00  0.0000000000000000e+00 0.0000000000000000e+00 0.0000000000000000e+00  0.0000000000000000e+00 0.0000000000000000e+00 0.0000000000000000e+00  0.0000000000000000e+00 0.0000000000000000e+00 0.0000000000000000e+00  0.0000000000000000e+00 0.0000000000000000e+00 0.0000000000000000e+00  0.0000000000000000e+00 0.0000000000000000e+00 0.0000000000000000e+00  0.0000000000000000e+00 0.0000000000000000e+00 0.0000000000000000e+00  0.0000000000000000e+00 0.0000000000000000e+00 0.0000000000000000e+00  0.0000000000000000e+00 0.0000000000000000e+00 0.0000000000000000e+00  0.0000000000000000e+00 0.0000000000000000e+00 0.0000000000000000e+00  0.0000000000000000e+00 0.0000000000000000e+00 0.0000000000000000e+00  0.0000000000000000e+00 0.0000000000000000e+00 0.0000000000000000e+00  0.0000000000000000e+00 0.0000000000000000e+00 0.0000000000000000e+00  0.0000000000000000e+00 0.0000000000000000e+00 0.0000000000000000e+00  0.0000000000000000e+00 0.0000000000000000e+00 0.0000000000000000e+00  0.0000000000000000e+00 0.0000000000000000e+00 0.0000000000000000e+00  0.0000000000000000e+00 0.0000000000000000e+00 0.0000000000000000e+00  0.0000000000000000e+00 0.0000000000000000e+00 0.0000000000000000e+00  0.0000000000000000e+00 0.0000000000000000e+00 0.0000000000000000e+00  0.0000000000000000e+00 0.0000000000000000e+00 0.0000000000000000e+00  0.0000000000000000e+00 0.0000000000000000e+00 0.0000000000000000e+00  0.0000000000000000e+00 0.0000000000000000e+00 0.0000000000000000e+00  0.0000000000000000e+00 0.0000000000000000e+00 0.0000000000000000e+00  0.0000000000000000e+00 0.0000000000000000e+00 0.0000000000000000e+00  0.0000000000000000e+00 0.0000000000000000e+00 0.0000000000000000e+00  0.0000000000000000e+00 0.0000000000000000e+00 0.0000000000000000e+00  0.0000000000000000e+00 0.0000000000000000e+00 0.0000000000000000e+00  0.0000000000000000e+00 0.0000000000000000e+00 0.0000000000000000e+00  0.0000000000000000e+00 0.0000000000000000e+00 0.0000000000000000e+00  0.0000000000000000e+00 0.0000000000000000e+00 0.0000000000000000e+00  0.0000000000000000e+00 0.0000000000000000e+00 0.0000000000000000e+00  0.0000000000000000e+00 0.0000000000000000e+00 0.0000000000000000e+00  0.0000000000000000e+00 0.0000000000000000e+00 0.0000000000000000e+00  0.0000000000000000e+00 0.0000000000000000e+00 0.0000000000000000e+00  0.0000000000000000e+00 0.0000000000000000e+00 0.0000000000000000e+00  0.0000000000000000e+00 0.0000000000000000e+00 0.0000000000000000e+00  0.0000000000000000e+00 0.0000000000000000e+00 0.0000000000000000e+00  0.0000000000000000e+00 0.0000000000000000e+00 0.0000000000000000e+00  0.0000000000000000e+00 0.0000000000000000e+00 0.0000000000000000e+00  0.0000000000000000e+00 0.0000000000000000e+00 0.0000000000000000e+00  0.0000000000000000e+00 0.0000000000000000e+00 0.0000000000000000e+00  0.0000000000000000e+00 0.0000000000000000e+00 0.0000000000000000e+00  0.0000000000000000e+00 0.0000000000000000e+00 0.0000000000000000e+00  0.0000000000000000e+00 0.0000000000000000e+00 0.0000000000000000e+00  0.0000000000000000e+00 0.0000000000000000e+00 0.0000000000000000e+00  0.0000000000000000e+00 0.0000000000000000e+00 0.0000000000000000e+00  0.0000000000000000e+00 0.0000000000000000e+00 0.0000000000000000e+00  0.0000000000000000e+00 0.0000000000000000e+00 0.0000000000000000e+00  0.0000000000000000e+00 0.0000000000000000e+00 0.0000000000000000e+00  0.0000000000000000e+00 0.0000000000000000e+00 0.0000000000000000e+00  0.0000000000000000e+00 0.0000000000000000e+00 0.0000000000000000e+00  0.0000000000000000e+00 0.0000000000000000e+00 0.0000000000000000e+00  0.0000000000000000e+00 0.0000000000000000e+00 0.0000000000000000e+00  0.0000000000000000e+00 0.0000000000000000e+00 0.0000000000000000e+00  0.0000000000000000e+00 0.0000000000000000e+00 0.0000000000000000e+00  0.0000000000000000e+00 0.0000000000000000e+00 0.0000000000000000e+00  0.0000000000000000e+00 0.0000000000000000e+00 0.0000000000000000e+00  0.0000000000000000e+00 0.0000000000000000e+00 0.0000000000000000e+00  0.0000000000000000e+00 0.0000000000000000e+00 0.0000000000000000e+00  0.0000000000000000e+00 0.0000000000000000e+00 0.0000000000000000e+00  0.0000000000000000e+00 0.0000000000000000e+00 0.0000000000000000e+00  0.0000000000000000e+00 0.0000000000000000e+00 0.0000000000000000e+00  0.0000000000000000e+00 0.0000000000000000e+00 0.0000000000000000e+00  0.0000000000000000e+00 0.0000000000000000e+00 0.0000000000000000e+00  0.0000000000000000e+00 0.0000000000000000e+00 0.0000000000000000e+00  0.0000000000000000e+00 0.0000000000000000e+00 0.0000000000000000e+00  0.0000000000000000e+00 0.0000000000000000e+00 0.0000000000000000e+00  0.0000000000000000e+00 0.0000000000000000e+00 0.0000000000000000e+00  0.0000000000000000e+00 0.0000000000000000e+00 0.0000000000000000e+00  0.0000000000000000e+00 0.0000000000000000e+00 0.0000000000000000e+00  0.0000000000000000e+00 0.0000000000000000e+00 0.0000000000000000e+00  0.0000000000000000e+00 0.0000000000000000e+00 0.0000000000000000e+00  0.0000000000000000e+00 0.0000000000000000e+00 0.0000000000000000e+00  0.0000000000000000e+00 0.0000000000000000e+00 0.0000000000000000e+00  0.0000000000000000e+00 0.0000000000000000e+00 0.0000000000000000e+00  0.0000000000000000e+00 0.0000000000000000e+00 0.0000000000000000e+00  0.0000000000000000e+00 0.0000000000000000e+00 0.0000000000000000e+00  0.0000000000000000e+00 0.0000000000000000e+00 0.0000000000000000e+00  0.0000000000000000e+00 0.0000000000000000e+00 0.0000000000000000e+00  0.0000000000000000e+00 0.0000000000000000e+00 0.0000000000000000e+00  0.0000000000000000e+00 0.0000000000000000e+00 0.0000000000000000e+00  0.0000000000000000e+00 0.0000000000000000e+00 0.0000000000000000e+00  0.0000000000000000e+00 0.0000000000000000e+00 0.0000000000000000e+00  0.0000000000000000e+00 0.0000000000000000e+00 0.0000000000000000e+00  0.0000000000000000e+00 0.0000000000000000e+00 0.0000000000000000e+00  0.0000000000000000e+00 0.0000000000000000e+00 0.0000000000000000e+00  0.0000000000000000e+00 0.0000000000000000e+00 0.0000000000000000e+00  0.0000000000000000e+00 0.0000000000000000e+00 0.0000000000000000e+00  0.0000000000000000e+00 0.0000000000000000e+00 0.0000000000000000e+00  0.0000000000000000e+00 0.0000000000000000e+00 0.0000000000000000e+00  0.0000000000000000e+00 0.0000000000000000e+00 0.0000000000000000e+00  0.0000000000000000e+00 0.0000000000000000e+00 0.0000000000000000e+00  0.0000000000000000e+00 0.0000000000000000e+00 0.0000000000000000e+00  0.0000000000000000e+00 0.0000000000000000e+00 0.0000000000000000e+00  0.0000000000000000e+00 0.0000000000000000e+00 0.0000000000000000e+00  0.0000000000000000e+00 0.0000000000000000e+00 0.0000000000000000e+00  0.0000000000000000e+00 0.0000000000000000e+00 0.0000000000000000e+00  0.0000000000000000e+00 0.0000000000000000e+00 0.0000000000000000e+00  0.0000000000000000e+00 0.0000000000000000e+00 0.0000000000000000e+00  0.0000000000000000e+00 0.0000000000000000e+00 0.0000000000000000e+00  0.0000000000000000e+00 0.0000000000000000e+00 0.0000000000000000e+00  0.0000000000000000e+00 0.0000000000000000e+00 0.0000000000000000e+00  0.0000000000000000e+00 0.0000000000000000e+00 0.0000000000000000e+00  0.0000000000000000e+00 0.0000000000000000e+00 0.0000000000000000e+00  0.0000000000000000e+00 0.0000000000000000e+00 0.0000000000000000e+00  0.0000000000000000e+00 0.0000000000000000e+00 0.0000000000000000e+00  0.0000000000000000e+00 0.0000000000000000e+00 0.0000000000000000e+00  0.0000000000000000e+00 0.0000000000000000e+00 0.0000000000000000e+00  0.0000000000000000e+00 0.0000000000000000e+00 0.0000000000000000e+00  0.0000000000000000e+00 0.0000000000000000e+00 0.0000000000000000e+00  0.0000000000000000e+00 0.0000000000000000e+00 0.0000000000000000e+00  0.0000000000000000e+00 0.0000000000000000e+00 0.0000000000000000e+00  0.0000000000000000e+00 0.0000000000000000e+00 0.0000000000000000e+00  0.0000000000000000e+00 0.0000000000000000e+00 0.0000000000000000e+00  0.0000000000000000e+00 0.0000000000000000e+00 0.0000000000000000e+00  0.0000000000000000e+00 0.0000000000000000e+00 0.0000000000000000e+00  0.0000000000000000e+00 0.0000000000000000e+00 0.0000000000000000e+00  0.0000000000000000e+00 0.0000000000000000e+00 0.0000000000000000e+00  0.0000000000000000e+00 0.0000000000000000e+00 0.0000000000000000e+00  0.0000000000000000e+00 0.0000000000000000e+00 0.0000000000000000e+00  0.0000000000000000e+00 0.0000000000000000e+00 0.0000000000000000e+00  0.0000000000000000e+00 0.0000000000000000e+00 0.0000000000000000e+00  0.0000000000000000e+00 0.0000000000000000e+00 0.0000000000000000e+00  0.0000000000000000e+00 0.0000000000000000e+00 0.0000000000000000e+00  0.0000000000000000e+00 0.0000000000000000e+00 0.0000000000000000e+00  0.0000000000000000e+00 0.0000000000000000e+00 0.0000000000000000e+00  0.0000000000000000e+00 0.0000000000000000e+00 0.0000000000000000e+00  0.0000000000000000e+00 0.0000000000000000e+00 0.0000000000000000e+00  0.0000000000000000e+00 0.0000000000000000e+00 0.0000000000000000e+00  0.0000000000000000e+00 0.0000000000000000e+00 0.0000000000000000e+00  0.0000000000000000e+00 0.0000000000000000e+00 0.0000000000000000e+00  0.0000000000000000e+00 0.0000000000000000e+00 0.0000000000000000e+00  0.0000000000000000e+00 0.0000000000000000e+00 0.0000000000000000e+00  0.0000000000000000e+00 0.0000000000000000e+00 0.0000000000000000e+00  0.0000000000000000e+00 0.0000000000000000e+00 0.0000000000000000e+00  0.0000000000000000e+00 0.0000000000000000e+00 0.0000000000000000e+00  0.0000000000000000e+00 0.0000000000000000e+00 0.0000000000000000e+00  0.0000000000000000e+00 0.0000000000000000e+00 0.0000000000000000e+00  0.0000000000000000e+00 0.0000000000000000e+00 0.0000000000000000e+00  0.0000000000000000e+00 0.0000000000000000e+00 0.0000000000000000e+00  0.0000000000000000e+00 0.0000000000000000e+00 0.0000000000000000e+00  0.0000000000000000e+00 0.0000000000000000e+00 0.0000000000000000e+00  0.0000000000000000e+00 0.0000000000000000e+00 0.0000000000000000e+00  0.0000000000000000e+00 0.0000000000000000e+00 0.0000000000000000e+00  0.0000000000000000e+00 0.0000000000000000e+00 0.0000000000000000e+00  0.0000000000000000e+00 0.0000000000000000e+00 0.0000000000000000e+00  0.0000000000000000e+00 0.0000000000000000e+00 0.0000000000000000e+00  0.0000000000000000e+00 0.0000000000000000e+00 0.0000000000000000e+00  0.0000000000000000e+00 0.0000000000000000e+00 0.0000000000000000e+00  0.0000000000000000e+00 0.0000000000000000e+00 0.0000000000000000e+00  0.0000000000000000e+00 0.0000000000000000e+00 0.0000000000000000e+00  0.0000000000000000e+00 0.0000000000000000e+00 0.0000000000000000e+00  0.0000000000000000e+00 0.0000000000000000e+00 0.0000000000000000e+00  0.0000000000000000e+00 0.0000000000000000e+00 0.0000000000000000e+00  0.0000000000000000e+00 0.0000000000000000e+00 0.0000000000000000e+00  0.0000000000000000e+00 0.0000000000000000e+00 0.0000000000000000e+00  0.0000000000000000e+00 0.0000000000000000e+00 0.0000000000000000e+00  0.0000000000000000e+00 0.0000000000000000e+00 0.0000000000000000e+00  0.0000000000000000e+00 0.0000000000000000e+00 0.0000000000000000e+00  0.0000000000000000e+00 0.0000000000000000e+00 0.0000000000000000e+00  0.0000000000000000e+00 0.0000000000000000e+00 0.0000000000000000e+00  0.0000000000000000e+00 0.0000000000000000e+00 0.0000000000000000e+00  0.0000000000000000e+00 0.0000000000000000e+00 0.0000000000000000e+00  0.0000000000000000e+00 0.0000000000000000e+00 0.0000000000000000e+00  0.0000000000000000e+00 0.0000000000000000e+00 0.0000000000000000e+00  0.0000000000000000e+00 0.0000000000000000e+00 0.0000000000000000e+00  0.0000000000000000e+00 0.0000000000000000e+00 0.0000000000000000e+00  0.0000000000000000e+00 0.0000000000000000e+00 0.0000000000000000e+00  0.0000000000000000e+00 0.0000000000000000e+00 0.0000000000000000e+00  0.0000000000000000e+00 0.0000000000000000e+00 0.0000000000000000e+00  0.0000000000000000e+00 0.0000000000000000e+00 0.0000000000000000e+00  0.0000000000000000e+00 0.0000000000000000e+00 0.0000000000000000e+00  0.0000000000000000e+00 0.0000000000000000e+00 0.0000000000000000e+00  0.0000000000000000e+00 0.0000000000000000e+00 0.0000000000000000e+00  0.0000000000000000e+00 0.0000000000000000e+00 0.0000000000000000e+00  0.0000000000000000e+00 0.0000000000000000e+00 0.0000000000000000e+00  0.0000000000000000e+00 0.0000000000000000e+00 0.0000000000000000e+00  0.0000000000000000e+00 0.0000000000000000e+00 0.0000000000000000e+00  0.0000000000000000e+00 0.0000000000000000e+00 0.0000000000000000e+00  0.0000000000000000e+00 0.0000000000000000e+00 0.0000000000000000e+00  0.0000000000000000e+00 0.0000000000000000e+00 0.0000000000000000e+00  0.0000000000000000e+00 0.0000000000000000e+00 0.0000000000000000e+00  0.0000000000000000e+00 0.0000000000000000e+00 0.0000000000000000e+00  0.0000000000000000e+00 0.0000000000000000e+00 0.0000000000000000e+00  0.0000000000000000e+00 0.0000000000000000e+00 0.0000000000000000e+00  0.0000000000000000e+00 0.0000000000000000e+00 0.0000000000000000e+00  0.0000000000000000e+00 0.0000000000000000e+00 0.0000000000000000e+00  0.0000000000000000e+00 0.0000000000000000e+00 0.0000000000000000e+00  0.0000000000000000e+00 0.0000000000000000e+00 0.0000000000000000e+00  0.0000000000000000e+00 0.0000000000000000e+00 0.0000000000000000e+00  0.0000000000000000e+00 0.0000000000000000e+00 0.0000000000000000e+00  0.0000000000000000e+00 0.0000000000000000e+00 0.0000000000000000e+00  0.0000000000000000e+00 0.0000000000000000e+00 0.0000000000000000e+00  0.0000000000000000e+00 0.0000000000000000e+00 0.0000000000000000e+00  0.0000000000000000e+00 0.0000000000000000e+00 0.0000000000000000e+00  0.0000000000000000e+00 0.0000000000000000e+00 0.0000000000000000e+00  0.0000000000000000e+00 0.0000000000000000e+00 0.0000000000000000e+00  0.0000000000000000